 # Version information for this restart file 
 # current date 2023-03-27 04:49:08.000
 # current working dir /scratch/usr/hbclanka/others/lenard-au/20221013/relaxed_Defective_AIMD
 # Program compiled at                              Fri Mar 20 16:02:55 CET 2020
 # Program compiled on                                                   bfn1001
 # Program compiled for                                                    local
 # Source code revision number                                       git:e635599
 &GLOBAL
   PREFERRED_DIAG_LIBRARY  ELPA
   PRINT_LEVEL  LOW
   PROJECT_NAME CU_AIMD
   RUN_TYPE  MD
 &END GLOBAL
 &MOTION
   &GEO_OPT
     OPTIMIZER  CG
     MAX_ITER  100
     MAX_DR     3.0000000000000001E-03
     MAX_FORCE     4.4999999999999999E-04
     RMS_DR     1.5000000000000000E-03
     RMS_FORCE     2.9999999999999997E-04
   &END GEO_OPT
   &MD
     ENSEMBLE  LANGEVIN
     STEPS  2000
     TIMESTEP     1.9999999999999996E+00
     STEP_START_VAL  76340
     TIME_START_VAL     1.5267999999987238E+05
     ECONS_START_VAL    -1.1401333557583396E+03
     TEMPERATURE     4.0000000000000006E+02
     &LANGEVIN
       GAMMA     9.9999999999999985E-03
     &END LANGEVIN
     &THERMOSTAT
       TYPE  AD_LANGEVIN
       &AD_LANGEVIN
         TIMECON_NH     9.9999999999999964E+00
         TIMECON_LANGEVIN     9.9999999999999964E+00
       &END AD_LANGEVIN
     &END THERMOSTAT
     &AVERAGES  T
       &RESTART_AVERAGES
         ITIMES_START  1
         AVECPU     2.4257961154352952E+01
         AVEHUGONIOT     0.0000000000000000E+00
         AVETEMP_BARO     0.0000000000000000E+00
         AVEPOT    -1.1404156282658857E+03
         AVEKIN     2.3556226540955821E-01
         AVETEMP     3.9671782090092114E+02
         AVEKIN_QM     0.0000000000000000E+00
         AVETEMP_QM     0.0000000000000000E+00
         AVEVOL     3.8486565621111666E+04
         AVECELL_A     4.6660080675708556E+01
         AVECELL_B     2.7998353237106496E+01
         AVECELL_C     3.4015070391942878E+01
         AVEALPHA     8.9999999999650342E+01
         AVEBETA     8.9999999999565375E+01
         AVEGAMMA     6.0006668418637503E+01
         AVE_ECONS    -1.1706297381286011E+02
         AVE_PRESS     0.0000000000000000E+00
         AVE_PXX     0.0000000000000000E+00
       &END RESTART_AVERAGES
     &END AVERAGES
   &END MD
   &PRINT
     &TRAJECTORY  SILENT
       FILENAME MD.TRAJ
       &EACH
         MD  10
       &END EACH
     &END TRAJECTORY
     &VELOCITIES  OFF
     &END VELOCITIES
     &FORCES  OFF
     &END FORCES
     &RESTART  SILENT
       FILENAME MD.REST
       BACKUP_COPIES  3
       &EACH
         MD  10
       &END EACH
     &END RESTART
     &RESTART_HISTORY  SILENT
       &EACH
         MD  100
       &END EACH
     &END RESTART_HISTORY
   &END PRINT
 &END MOTION
 &FORCE_EVAL
   METHOD  QS
   &DFT
     BASIS_SET_FILE_NAME BASIS_MOLOPT
     POTENTIAL_FILE_NAME GTH_POTENTIALS
     MULTIPLICITY  1
     CHARGE  0
     &SCF
       MAX_SCF  200
       EPS_SCF     9.9999999999999995E-07
       CHOLESKY  INVERSE
       SCF_GUESS  ATOMIC
       ADDED_MOS  200
       &DIAGONALIZATION  T
         ALGORITHM  STANDARD
       &END DIAGONALIZATION
       &SMEAR  T
         METHOD  FERMI_DIRAC
         ELECTRONIC_TEMPERATURE     3.0000000000000000E+02
       &END SMEAR
       &MIXING  T
         METHOD  BROYDEN_MIXING
         ALPHA     2.0000000000000001E-01
         BETA     5.0000000000000000E-01
       &END MIXING
       &PRINT
         &RESTART  OFF
         &END RESTART
       &END PRINT
     &END SCF
     &QS
       EPS_DEFAULT     9.9999999999999998E-13
       EPS_PGF_ORB     1.0000000000000001E-05
       EXTRAPOLATION  ASPC
       EXTRAPOLATION_ORDER  3
       METHOD  GPW
     &END QS
     &MGRID
       CUTOFF     5.0000000000000000E+02
     &END MGRID
     &XC
       DENSITY_CUTOFF     1.0000000000000000E-10
       GRADIENT_CUTOFF     1.0000000000000000E-10
       TAU_CUTOFF     1.0000000000000000E-10
       &XC_GRID
         XC_SMOOTH_RHO  NN10
         XC_DERIV  PW
       &END XC_GRID
       &XC_FUNCTIONAL  NO_SHORTCUT
         &PBE  T
           PARAMETRIZATION  ORIG
         &END PBE
       &END XC_FUNCTIONAL
       &VDW_POTENTIAL
         POTENTIAL_TYPE  PAIR_POTENTIAL
         &PAIR_POTENTIAL
           R_CUTOFF     1.0583544200000000E+01
           TYPE  DFTD3(BJ)
           PARAMETER_FILE_NAME ./dftd3.dat
           REFERENCE_FUNCTIONAL PBE
         &END PAIR_POTENTIAL
       &END VDW_POTENTIAL
     &END XC
     &POISSON
       PERIODIC  XYZ
     &END POISSON
   &END DFT
   &SUBSYS
     &RNG_INIT
Wiener process for particle 1            1 F T F   1.8904879328644424E+00        3369025462.0         800787295.0        3652015889.0        2839073833.0        2196568248.0        1611446635.0             12345.0             12345.0             12345.0             12345.0             12345.0             12345.0             12345.0             12345.0             12345.0             12345.0             12345.0             12345.0
Wiener process for particle 2            1 F T F  -1.2214219215846596E+00        3675229223.0        1971195131.0        1258380498.0        1298192954.0         639865955.0        3186039568.0        3692455944.0        1366884236.0        2968912127.0         335948734.0        4161675175.0         475798818.0        3692455944.0        1366884236.0        2968912127.0         335948734.0        4161675175.0         475798818.0
Wiener process for particle 3            1 F T F  -1.9533911184487174E-01        2496442262.0         242728047.0        2551743291.0        2297264700.0        2435768013.0        3443591736.0        1015873554.0        1310354410.0        2249465273.0         994084013.0        2912484720.0        3876682925.0        1015873554.0        1310354410.0        2249465273.0         994084013.0        2912484720.0        3876682925.0
Wiener process for particle 4            1 F T F  -7.8267040117515874E-01        1669213630.0        3472307799.0        2457965604.0         244323355.0        2898253806.0        2377754807.0        2338701263.0        1119171942.0        2570676563.0         317077452.0        3194180850.0         618832124.0        2338701263.0        1119171942.0        2570676563.0         317077452.0        3194180850.0         618832124.0
Wiener process for particle 5            1 F T F   1.4280998486764753E+00        4234089640.0        2616882666.0        3436943008.0        1297350348.0        3524147698.0        2692252000.0        1597262096.0        3906379055.0        3312112953.0        1016013135.0        4099474108.0         275305423.0        1597262096.0        3906379055.0        3312112953.0        1016013135.0        4099474108.0         275305423.0
Wiener process for particle 6            1 F T F  -1.3223713138137791E+00        2474192818.0        2101932233.0        1749156003.0        1151751913.0         795906914.0        1606251605.0          97147054.0        3131372450.0         829345164.0        3691032523.0        3006063034.0        4259826321.0          97147054.0        3131372450.0         829345164.0        3691032523.0        3006063034.0        4259826321.0
Wiener process for particle 7            1 F T F   1.1113903186764928E+00        2340721063.0        1453780001.0        2001835497.0        3710944683.0        2035308844.0        1938481091.0         796079799.0        2105258207.0         955365076.0        2923159030.0        4116632677.0        3067683584.0         796079799.0        2105258207.0         955365076.0        2923159030.0        4116632677.0        3067683584.0
Wiener process for particle 8            1 F T F  -1.4135470873028955E+00        1612427265.0        2776335371.0        2166293972.0        2544458748.0        1605700626.0        4264418165.0        3281794178.0        2616230133.0        1457051261.0        2762791137.0        2480527362.0        2282316169.0        3281794178.0        2616230133.0        1457051261.0        2762791137.0        2480527362.0        2282316169.0
Wiener process for particle 9            1 F T F   2.2226712224545198E-01        2042983687.0        2420821492.0         588777566.0         499302225.0        4061502281.0        1177524067.0        3777646647.0        1837464056.0        4204654757.0         664239048.0        4190510072.0        2959195122.0        3777646647.0        1837464056.0        4204654757.0         664239048.0        4190510072.0        2959195122.0
Wiener process for particle 10           1 F T F   1.4607099337592431E+00        2890590723.0        2980472905.0        1608077202.0        3372843994.0        4281756966.0         618054766.0        4215590817.0        3862461878.0        1087200967.0        1544910132.0         936383720.0        1611370123.0        4215590817.0        3862461878.0        1087200967.0        1544910132.0         936383720.0        1611370123.0
Wiener process for particle 11           1 F T F  -6.4363526708366403E-01        1112527155.0        3350167596.0        1626989805.0         920180646.0        1860783692.0        2697305523.0        1683636369.0         362165168.0         814316280.0         869382050.0         980203903.0        2062101717.0        1683636369.0         362165168.0         814316280.0         869382050.0         980203903.0        2062101717.0
Wiener process for particle 12           1 F T F  -7.8455633464725039E-01         112659678.0        2337785177.0        3094910580.0        3069253322.0         740903582.0        2260212145.0         272317999.0         166758548.0         310112982.0         201045826.0        1680231254.0         118290799.0         272317999.0         166758548.0         310112982.0         201045826.0        1680231254.0         118290799.0
Wiener process for particle 13           1 F T F  -1.3755618529495800E-01         142692003.0        2133207622.0        3224457118.0        2182479674.0        1674535107.0        1747891914.0        2245755202.0        1652682525.0        2865544364.0         721509566.0         209733568.0         592362218.0        2245755202.0        1652682525.0        2865544364.0         721509566.0         209733568.0         592362218.0
Wiener process for particle 14           1 F T F  -5.6695747434846766E-01         904719978.0        3248933222.0         170345407.0        1663683137.0        2872081563.0        2879939481.0        3003961408.0        3529909391.0          14538032.0        3603919910.0         566682685.0        1235016484.0        3003961408.0        3529909391.0          14538032.0        3603919910.0         566682685.0        1235016484.0
Wiener process for particle 15           1 F T F   3.6103378001554243E-01        2527362558.0         395318638.0        3021469791.0        1705765480.0        1979659363.0        1413788348.0         596094074.0        2279636413.0        3050913596.0        1739649456.0        2368706608.0        3058697049.0         596094074.0        2279636413.0        3050913596.0        1739649456.0        2368706608.0        3058697049.0
Wiener process for particle 16           1 F T F  -7.5356686107350546E-01         479187194.0        2156458290.0        1092540695.0        3254674445.0        1512523572.0        3340054908.0        1437096527.0        2547142266.0        2541498983.0        2640839690.0        2160978219.0        2618657830.0        1437096527.0        2547142266.0        2541498983.0        2640839690.0        2160978219.0        2618657830.0
Wiener process for particle 17           1 F T F   5.2779033127195618E-01        1617040486.0         574068862.0        3905359272.0        2283714651.0        1478708246.0         189320220.0        3224044943.0        1227141655.0        2220611050.0        1504589054.0        2829780440.0         108189859.0        3224044943.0        1227141655.0        2220611050.0        1504589054.0        2829780440.0         108189859.0
Wiener process for particle 18           1 F T F   8.5137756831661271E-01         891786158.0        2893961267.0        1514073961.0        3533294233.0        3891633351.0        3400581792.0         927434978.0        1593504038.0        2143021818.0        1749489845.0        1330187821.0        2371554242.0         927434978.0        1593504038.0        2143021818.0        1749489845.0        1330187821.0        2371554242.0
Wiener process for particle 19           1 F T F  -1.0587583846643372E-01        2072916103.0        2434324153.0        2111246811.0        4278595853.0         556150954.0        2709501155.0        3446225690.0         835741554.0        2195834023.0        1297741021.0        3357053382.0         383824268.0        3446225690.0         835741554.0        2195834023.0        1297741021.0        3357053382.0         383824268.0
Wiener process for particle 20           1 F T F  -2.9071486718977474E-01        3816579692.0        2137631527.0        3420787796.0        2262305442.0         378875914.0        1124600127.0        3984477137.0        1267973573.0        3770063761.0         216527865.0        1568537936.0        1200352663.0        3984477137.0        1267973573.0        3770063761.0         216527865.0        1568537936.0        1200352663.0
Wiener process for particle 21           1 F T F  -6.8663766572272378E-01        3818368249.0        2845109050.0        4162325176.0         452938190.0        1825881728.0         518487256.0        2503334853.0        3179736892.0        2080184241.0        2881517721.0        3611607237.0        2639045213.0        2503334853.0        3179736892.0        2080184241.0        2881517721.0        3611607237.0        2639045213.0
Wiener process for particle 22           1 F T F   9.9836778697516490E-02        3146900332.0         424898542.0        3330701113.0        2956299303.0         997877875.0        3003824966.0        2784301963.0        3004110709.0        4065265451.0        2351994899.0        1824839263.0        1473060447.0        2784301963.0        3004110709.0        4065265451.0        2351994899.0        1824839263.0        1473060447.0
Wiener process for particle 23           1 F T F   1.5028001821487005E+00        2476440440.0         228956342.0        1493026175.0        1625082850.0        2071128307.0        2066974360.0        3645411182.0        1391027122.0        3995023402.0         536114258.0        1376034799.0        2391282907.0        3645411182.0        1391027122.0        3995023402.0         536114258.0        1376034799.0        2391282907.0
Wiener process for particle 24           1 F T F  -6.6159235221842450E-01        1843982035.0        1643086633.0        2779832872.0        2912709140.0         178420452.0        2218505040.0        4205039797.0        2998067142.0        2737381050.0        2060484144.0          21123025.0         900610517.0        4205039797.0        2998067142.0        2737381050.0        2060484144.0          21123025.0         900610517.0
Wiener process for particle 25           1 F T F  -6.1913666259987110E-01        3237865622.0        4164372871.0        4173114110.0        3622656208.0        3951556348.0        2746439259.0        1708138263.0        1103344630.0        3131738563.0         354874525.0        1462105562.0        2799820805.0        1708138263.0        1103344630.0        3131738563.0         354874525.0        1462105562.0        2799820805.0
Wiener process for particle 26           1 F T F  -8.3937806895673284E-01         830477624.0         406654978.0        2652174367.0        2682776259.0        3644456025.0         551448990.0        1762624356.0        3338520614.0        1869672149.0        2420033342.0        3823777008.0        4112813433.0        1762624356.0        3338520614.0        1869672149.0        2420033342.0        3823777008.0        4112813433.0
Wiener process for particle 27           1 F T F  -6.0167169095673778E-01        3793700486.0         299515911.0        2454761802.0        2595247600.0          62677484.0        1745214282.0        1406960847.0        2689758640.0        2086764669.0        1479781266.0        4277003072.0        4173905453.0        1406960847.0        2689758640.0        2086764669.0        1479781266.0        4277003072.0        4173905453.0
Wiener process for particle 28           1 F T F   1.9858311953833903E+00         187098398.0         495987920.0        4262089932.0        3539136954.0        1857990237.0        2407069313.0        3217706054.0        3907922111.0        3316415646.0         934936431.0        1155310743.0        1383590847.0        3217706054.0        3907922111.0        3316415646.0         934936431.0        1155310743.0        1383590847.0
Wiener process for particle 29           1 F T F   1.2851228261147656E+00         106002305.0        2232622852.0        1114729263.0        3759839445.0        3933953798.0         775684202.0        2996242832.0        2506376012.0        1182520337.0         938957435.0        3286002927.0        1946707306.0        2996242832.0        2506376012.0        1182520337.0         938957435.0        3286002927.0        1946707306.0
Wiener process for particle 30           1 F T F   7.8876729292517322E-01         802771188.0        3157133770.0        1683830018.0         272385814.0        4129375766.0        2175476365.0        3757057907.0        1334546224.0        1509001838.0         991499802.0        1502864996.0         921145139.0        3757057907.0        1334546224.0        1509001838.0         991499802.0        1502864996.0         921145139.0
Wiener process for particle 31           1 F T F  -1.0042221304166297E+00        2861184549.0        1907964415.0        3358699407.0         424857488.0        1255552407.0        3965143043.0        3728532268.0         988545039.0        1631700325.0        1143954198.0        2209269908.0        1591407377.0        3728532268.0         988545039.0        1631700325.0        1143954198.0        2209269908.0        1591407377.0
Wiener process for particle 32           1 F T F  -3.0234383534801745E-01        3383050235.0        2172998988.0        2803964839.0        1061822065.0        1167938682.0        2289965742.0        3294123071.0        1464634864.0        3721431761.0        2693241183.0        1754954480.0        3900039887.0        3294123071.0        1464634864.0        3721431761.0        2693241183.0        1754954480.0        3900039887.0
Wiener process for particle 33           1 F T F  -2.3161860755401487E-01        2595530396.0        1450532513.0        2428339876.0        1452948920.0        1112820407.0        4116239089.0         131824893.0        3188611738.0        1376082626.0        2419937722.0        2563475034.0        1251594162.0         131824893.0        3188611738.0        1376082626.0        2419937722.0        2563475034.0        1251594162.0
Wiener process for particle 34           1 F T F   8.2846185525288329E-01        2160682295.0        2346150734.0        3896586094.0        3824041663.0        3991475860.0         127294293.0        3770164700.0        4029076745.0        1104720217.0        3496143152.0         735265587.0        3273706940.0        3770164700.0        4029076745.0        1104720217.0        3496143152.0         735265587.0        3273706940.0
Wiener process for particle 35           1 F T F   9.7492865918776206E-01          86227643.0        2305834632.0        4035876109.0        1892523831.0        3511760691.0         141128866.0        2131062045.0        2455732983.0         789218840.0        1151705419.0         286383816.0         924846932.0        2131062045.0        2455732983.0         789218840.0        1151705419.0         286383816.0         924846932.0
Wiener process for particle 36           1 F T F   6.2092020638745971E-01         789612792.0          60397393.0        2977767536.0        3438880080.0         259801488.0        3905785274.0        2053528341.0        4170407123.0        3515474899.0          98091789.0        1000335891.0        3854257602.0        2053528341.0        4170407123.0        3515474899.0          98091789.0        1000335891.0        3854257602.0
Wiener process for particle 37           1 F T F   5.7729484101450630E-02         518129388.0         965545211.0        3647173130.0        3003571073.0        2882006742.0         174366000.0        2469807084.0           9172128.0        3362394154.0        4021928081.0        2651348937.0        2296225074.0        2469807084.0           9172128.0        3362394154.0        4021928081.0        2651348937.0        2296225074.0
Wiener process for particle 38           1 F T F   9.9705284769931368E-01        2574045238.0        2329068750.0        4128082901.0        2898874707.0        3985340425.0        3613062898.0         794136241.0        1326962976.0        1423309168.0         588827532.0        1370684418.0        1646244893.0         794136241.0        1326962976.0        1423309168.0         588827532.0        1370684418.0        1646244893.0
Wiener process for particle 39           1 F T F   1.5521510532501583E+00        1012013533.0        1472859957.0         455158920.0        3674718212.0        2835085763.0        2473292096.0        2866999578.0        1918106148.0        3899143652.0        2905238681.0        3298551408.0         326591245.0        2866999578.0        1918106148.0        3899143652.0        2905238681.0        3298551408.0         326591245.0
Wiener process for particle 40           1 F T F   8.1330002979231542E-01        3659129183.0        1773338187.0        2832440343.0        3940860192.0        2448811699.0        2530840970.0        3040096556.0        1206876890.0         780501254.0         597456198.0        1004013014.0        3962406934.0        3040096556.0        1206876890.0         780501254.0         597456198.0        1004013014.0        3962406934.0
Wiener process for particle 41           1 F T F  -2.1328040341186880E+00        1578493934.0        3650788100.0        1741119241.0        2075574100.0        2184866668.0         879563918.0        3970659565.0        2743575038.0        4070166570.0         141329301.0        2711190398.0         148640829.0        3970659565.0        2743575038.0        4070166570.0         141329301.0        2711190398.0         148640829.0
Wiener process for particle 42           1 F T F  -1.3758805011268600E-02         186848074.0        3173819185.0        1324584742.0        1016324985.0        1052821609.0        2244595849.0         216582539.0        3263278363.0        1880572884.0        3722908253.0         287018188.0         285207334.0         216582539.0        3263278363.0        1880572884.0        3722908253.0         287018188.0         285207334.0
Wiener process for particle 43           1 F T F  -3.9090119235206860E-01        3067823149.0        1701104311.0         466454169.0        1226710677.0         600651958.0        3940457155.0        4258459985.0        1892494520.0        2510345890.0        2935846613.0        1134826799.0        1965241718.0        4258459985.0        1892494520.0        2510345890.0        2935846613.0        1134826799.0        1965241718.0
Wiener process for particle 44           1 F T F   1.7327163749534307E+00        2715304656.0        1476726371.0         147403656.0        3196648410.0        2667543990.0        3459371015.0         578737695.0         119907309.0        1233642926.0        4159114509.0        3946997940.0          72299514.0         578737695.0         119907309.0        1233642926.0        4159114509.0        3946997940.0          72299514.0
Wiener process for particle 45           1 F T F  -1.6063593547163590E+00        2146134300.0        3131472522.0         362652024.0        2084213971.0        1681460758.0        2197325544.0        2479155365.0        4125104013.0         170057196.0        2546874696.0        2945959743.0        4079518977.0        2479155365.0        4125104013.0         170057196.0        2546874696.0        2945959743.0        4079518977.0
Wiener process for particle 46           1 F T F   6.2794132046542772E-01        1854658766.0        2325188810.0        4074368501.0        1826420024.0        2587772236.0        2089091569.0        4016980097.0        3481660449.0         995889916.0        3015184182.0        4180728415.0        3263605701.0        4016980097.0        3481660449.0         995889916.0        3015184182.0        4180728415.0        3263605701.0
Wiener process for particle 47           1 F T F   7.7876327652321831E-01        2225431463.0        4288130653.0        2698944925.0        4208539864.0         964690052.0          51636090.0        1769249367.0        2243378503.0        3654912402.0        3067634031.0        2622402920.0         552187620.0        1769249367.0        2243378503.0        3654912402.0        3067634031.0        2622402920.0         552187620.0
Wiener process for particle 48           1 F T F  -4.4076504873221756E-01        1660528510.0          32266984.0         358595379.0        3680445873.0        2483456979.0        3924908404.0        2210461626.0         810156371.0        1171187114.0        2260289774.0        3470472214.0        2062524891.0        2210461626.0         810156371.0        1171187114.0        2260289774.0        3470472214.0        2062524891.0
Wiener process for particle 49           1 F T F  -1.7487495612409953E-01        3223024525.0        3105468041.0        3161152969.0        1971665008.0        2784547766.0        2962479911.0        2967787448.0         410732989.0        1241813518.0        1154065742.0        1680293965.0        1718768485.0        2967787448.0         410732989.0        1241813518.0        1154065742.0        1680293965.0        1718768485.0
Wiener process for particle 50           1 F T F  -8.5538066250504863E-01        1482799861.0         636212977.0        3061547435.0        1737787997.0        3851446615.0        2636624317.0        2667041740.0        4238911572.0        3694573673.0        3166543307.0        2525238380.0        2009058941.0        2667041740.0        4238911572.0        3694573673.0        3166543307.0        2525238380.0        2009058941.0
Wiener process for particle 51           1 F T F   3.1412103348595240E-02        2744911851.0        3069521430.0        1931645970.0        3561664860.0         902685044.0        1344943658.0        1609088888.0         302146514.0        1337822968.0          32443790.0         663198624.0         108142314.0        1609088888.0         302146514.0        1337822968.0          32443790.0         663198624.0         108142314.0
Wiener process for particle 52           1 F T F  -1.0917628581425186E-01         371162502.0        2637343304.0        1799113676.0        1845694055.0         662341245.0        3074051156.0        3500933258.0        1350819015.0        2732370233.0         555530171.0        4066946918.0         915552600.0        3500933258.0        1350819015.0        2732370233.0         555530171.0        4066946918.0         915552600.0
Wiener process for particle 53           1 F T F   3.5743123705316932E-01        1504045798.0         639645099.0        3875200126.0        2356845940.0        2582337985.0        2072017570.0         193582114.0        3536931462.0        1061163334.0        2771375939.0        1968090767.0        2893840988.0         193582114.0        3536931462.0        1061163334.0        2771375939.0        1968090767.0        2893840988.0
Wiener process for particle 54           1 F T F  -1.5643815470674430E-01        3222289429.0         440930557.0        2539584982.0        3699197279.0        3013395849.0         866045090.0        2904978947.0        1723463734.0        2986735812.0        3454199587.0         735074847.0        2431656074.0        2904978947.0        1723463734.0        2986735812.0        3454199587.0         735074847.0        2431656074.0
Wiener process for particle 55           1 F T F   1.9564832801720791E+00          49465129.0         804180637.0        2915244842.0        2498145718.0        2133471291.0         421141533.0        2966808121.0        3354520627.0         346101755.0        1263362009.0        4029540813.0        3080467228.0        2966808121.0        3354520627.0         346101755.0        1263362009.0        4029540813.0        3080467228.0
Wiener process for particle 56           1 F T F  -7.8289553880307061E-01         743824424.0        2922743579.0        2123479697.0        4010323371.0        1516868191.0        1043262613.0         569973296.0        3971015859.0        3727859896.0        2211808163.0        3074531219.0        1990606083.0         569973296.0        3971015859.0        3727859896.0        2211808163.0        3074531219.0        1990606083.0
Wiener process for particle 57           1 F T F   1.3758643059639288E+00         692978976.0        2111819062.0        3220450011.0        2014215290.0        3717301076.0         652782730.0        3683590777.0        3859373512.0         297644217.0        3451581853.0         333484586.0        2062123863.0        3683590777.0        3859373512.0         297644217.0        3451581853.0         333484586.0        2062123863.0
Wiener process for particle 58           1 F T F   9.5835754108816262E-01        1732575483.0        4182368506.0        3220135779.0        3570190804.0        1734578691.0        3016917766.0         645531386.0        2789451056.0         574522196.0         570030963.0        3542619707.0         497013447.0         645531386.0        2789451056.0         574522196.0         570030963.0        3542619707.0         497013447.0