 DBCSR| CPU Multiplication driver                                           XSMM (U)
 DBCSR| Multrec recursion limit                                              512 (U)
 DBCSR| Multiplication stack size                                           1000 (D)
 DBCSR| Maximum elements for images                                    UNLIMITED (U)
 DBCSR| Multiplicative factor virtual images                                   1 (U)
 DBCSR| Use multiplication densification                                       T (D)
 DBCSR| Multiplication size stacks                                             3 (U)
 DBCSR| Use memory pool for CPU allocation                                     F (U)
 DBCSR| Number of 3D layers                                               SINGLE (U)
 DBCSR| Use MPI memory allocation                                              F (U)
 DBCSR| Use RMA algorithm                                                      F (U)
 DBCSR| Use Communication thread                                               T (U)
 DBCSR| Communication thread load                                             45 (D)
 DBCSR| MPI: My process id                                                     0
 DBCSR| MPI: Number of processes                                               1
 DBCSR| OMP: Current number of threads                                        12
 DBCSR| OMP: Max number of threads                                            12
 DBCSR| Split modifier for TAS multiplication algorithm                  1.0E+00 (U)


  **** **** ******  **  PROGRAM STARTED AT               2024-06-14 15:48:56.482
 ***** ** ***  *** **   PROGRAM STARTED ON                       DESKTOP-F0MB4IA
 **    ****   ******    PROGRAM STARTED BY                                lenard
 ***** **    ** ** **   PROGRAM PROCESS ID                                 41226
  **** **  *******  **  PROGRAM STARTED IN /mnt/e/Cell_Packing/Water_Sim/MyMulti
                                           ply

 CP2K| version string:                                       CP2K version 2024.1
 CP2K| source code revision number:                                  git:b4a17a5
 CP2K| cp2kflags: omp libint fftw3 libxc libgrpp parallel mpi_f08 scalapack cosm
 CP2K|            a xsmm spglib sirius libvori libbqb libvdwxc hdf5
 CP2K| is freely available from                            https://www.cp2k.org/
 CP2K| Program compiled at                         Thu Jun 13 07:46:42 SAST 2024
 CP2K| Program compiled on                                       DESKTOP-F0MB4IA
 CP2K| Program compiled for                                                local
 CP2K| Data directory path                                /home/lenard/cp2k/data
 CP2K| Input file name                                              watersim.inp

 GLOBAL| Force Environment number                                              1
 GLOBAL| Basis set file name                                      ./BASIS_MOLOPT
 GLOBAL| Potential file name                                    ./GTH_POTENTIALS
 GLOBAL| MM Potential file name                                     MM_POTENTIAL
 GLOBAL| Coordinate file name                                          water.xyz
 GLOBAL| Method name                                                        CP2K
 GLOBAL| Project name                                                      WATER
 GLOBAL| Run type                                                        GEO_OPT
 GLOBAL| FFT library                                                       FFTW3
 GLOBAL| Diagonalization library                                       ScaLAPACK
 GLOBAL| DGEMM library                                                      BLAS
 GLOBAL| Orthonormality check for eigenvectors                          DISABLED
 GLOBAL| Matrix multiplication library                                     COSMA
 GLOBAL| All-to-all communication in single precision                          F
 GLOBAL| FFTs using library dependent lengths                                  F
 GLOBAL| Grid backend                                                       AUTO
 GLOBAL| Global print level                                                  LOW
 GLOBAL| MPI I/O enabled                                                       T
 GLOBAL| Total number of message passing processes                             1
 GLOBAL| Number of threads for this process                                   12
 GLOBAL| This output is from process                                           0
 GLOBAL| Stack size for threads created by OpenMP (OMP_STACKSIZE)        default
 GLOBAL| CPU model name           AMD Ryzen Threadripper 3960X 24-Core Processor
 GLOBAL| CPUID                                                              1002
 GLOBAL| Compiled for CPUID                                                    0

 *** HINT in environment.F:920 :: The compiler target flags (generic) used ***
 *** to build this binary cannot exploit all extensions of this CPU model  ***
 *** (x86_avx2). Consider compiler target flags as part of FCFLAGS and     ***
 *** CFLAGS (ARCH file).                                                   ***


 MEMORY| system memory details [Kb]
 MEMORY|                        rank 0           min           max       average
 MEMORY| MemTotal             65787180      65787180      65787180      65787180
 MEMORY| MemFree              64418712      64418712      64418712      64418712
 MEMORY| Buffers                  4960          4960          4960          4960
 MEMORY| Cached                 294040        294040        294040        294040
 MEMORY| Slab                   167884        167884        167884        167884
 MEMORY| SReclaimable            46076         46076         46076         46076
 MEMORY| MemLikelyFree        64763788      64763788      64763788      64763788


 GENERATE|  Preliminary Number of Bonds generated:                             0
 GENERATE|  Achieved consistency in connectivity generation.

 *******************************************************************************
 *******************************************************************************
 **                                                                           **
 **     #####                         ##              ##                      **
 **    ##   ##            ##          ##              ##                      **
 **   ##     ##                       ##            ######                    **
 **   ##     ##  ##   ##  ##   #####  ##  ##   ####   ##    #####    #####    **
 **   ##     ##  ##   ##  ##  ##      ## ##   ##      ##   ##   ##  ##   ##   **
 **   ##  ## ##  ##   ##  ##  ##      ####     ###    ##   ######   ######    **
 **    ##  ###   ##   ##  ##  ##      ## ##      ##   ##   ##       ##        **
 **     #######   #####   ##   #####  ##  ##  ####    ##    #####   ##        **
 **           ##                                                    ##        **
 **                                                                           **
 **                                                ... make the atoms dance   **
 **                                                                           **
 **            Copyright (C) by CP2K developers group (2000-2024)             **
 **                      J. Chem. Phys. 152, 194103 (2020)                    **
 **                                                                           **
 *******************************************************************************


 TOTAL NUMBERS AND MAXIMUM NUMBERS

  Total number of            - Atomic kinds:                                   2
                             - Atoms:                                         81
                             - Shell sets:                                    81
                             - Shells:                                       405
                             - Primitive Cartesian functions:                567
                             - Cartesian basis functions:                    864
                             - Spherical basis functions:                    837

  Maximum angular momentum of- Orbital basis functions:                        2
                             - Local part of the GTH pseudopotential:          2
                             - Non-local part of the GTH pseudopotential:      0


 SCF PARAMETERS         Density guess:                                    ATOMIC
                        --------------------------------------------------------
                        max_scf:                                            1000
                        max_scf_history:                                       0
                        max_diis:                                              4
                        --------------------------------------------------------
                        eps_scf:                                        1.00E-06
                        eps_scf_history:                                0.00E+00
                        eps_diis:                                       1.00E-01
                        eps_eigval:                                     1.00E-05
                        --------------------------------------------------------
                        level_shift [a.u.]:                             0.000000
                        --------------------------------------------------------
                        Outer loop SCF in use 
                        No variables optimised in outer loop
                        eps_scf                                         1.00E-06
                        max_scf                                               10
                        No outer loop optimization
                        step_size                                       5.00E-01

 BFGS| Use rational function optimization for step estimation:                NO
 BFGS| Use model Hessian for initial guess:                                  YES
 BFGS| Restart Hessian:                                                       NO
 BFGS| Trust radius:                                                       0.472

 *******************************************************************************
 ***                     STARTING GEOMETRY OPTIMIZATION                      ***
 ***                                   BFGS                                  ***
 *******************************************************************************

 Number of electrons:                                                        216
 Number of occupied orbitals:                                                108
 Number of molecular orbitals:                                               108

 Number of orbital functions:                                                837
 Number of independent orbital functions:                                    837

 Extrapolation method: initial_guess


 SCF WAVEFUNCTION OPTIMIZATION

  ----------------------------------- OT ---------------------------------------
  Minimizer      : DIIS                : direct inversion
                                         in the iterative subspace
                                         using   7 DIIS vectors
                                         safer DIIS on
  Preconditioner : FULL_SINGLE_INVERSE : inversion of 
                                         H + eS - 2*(Sc)(c^T*H*c+const)(Sc)^T
  Precond_solver : DEFAULT
  stepsize       :    0.08000000                  energy_gap     :    0.08000000
  eps_taylor     :   0.10000E-15                  max_taylor     :             4
  ----------------------------------- OT ---------------------------------------

  Step     Update method      Time    Convergence         Total energy    Change
  ------------------------------------------------------------------------------
     1 OT DIIS     0.80E-01    1.6     0.04404880      -443.6614008431 -4.44E+02
     2 OT DIIS     0.80E-01    2.7     0.03042549      -453.3896121960 -9.73E+00
     3 OT DIIS     0.80E-01    2.9     0.02315138      -458.0124155438 -4.62E+00
     4 OT DIIS     0.80E-01    3.3     0.01452471      -461.8523648449 -3.84E+00
     5 OT DIIS     0.80E-01    3.3     0.00950914      -463.2806981068 -1.43E+00
     6 OT DIIS     0.80E-01    3.3     0.00700902      -464.0029054741 -7.22E-01
     7 OT DIIS     0.80E-01    3.1     0.00572003      -464.3469226431 -3.44E-01
     8 OT DIIS     0.80E-01    3.2     0.00476481      -464.6308526091 -2.84E-01
     9 OT DIIS     0.80E-01    3.1     0.00398911      -464.8349063569 -2.04E-01
    10 OT DIIS     0.80E-01    3.1     0.00276160      -465.0243692440 -1.89E-01
    11 OT DIIS     0.80E-01    3.1     0.00196471      -465.1060198940 -8.17E-02
    12 OT DIIS     0.80E-01    3.2     0.00214348      -465.1047475566  1.27E-03
    13 OT DIIS     0.80E-01    3.1     0.00114739      -465.1710400989 -6.63E-02
    14 OT DIIS     0.80E-01    3.2     0.00083281      -465.1925044163 -2.15E-02
    15 OT DIIS     0.80E-01    3.1     0.00061811      -465.2069926077 -1.45E-02
    16 OT DIIS     0.80E-01    3.1     0.00046437      -465.2143835644 -7.39E-03
    17 OT DIIS     0.80E-01    3.0     0.00032219      -465.2185696061 -4.19E-03
    18 OT DIIS     0.80E-01    3.1     0.00025887      -465.2204888659 -1.92E-03
    19 OT DIIS     0.80E-01    3.1     0.00021943      -465.2216931063 -1.20E-03
    20 OT DIIS     0.80E-01    3.1     0.00017679      -465.2229014997 -1.21E-03
    21 OT DIIS     0.80E-01    3.1     0.00015419      -465.2236309677 -7.29E-04
    22 OT DIIS     0.80E-01    3.3     0.00013686      -465.2242375369 -6.07E-04
    23 OT DIIS     0.80E-01    3.3     0.00012176      -465.2247798441 -5.42E-04
    24 OT DIIS     0.80E-01    3.4     0.00011087      -465.2252089297 -4.29E-04
    25 OT DIIS     0.80E-01    3.3     0.00009954      -465.2256398035 -4.31E-04
    26 OT DIIS     0.80E-01    3.2     0.00009092      -465.2259792175 -3.39E-04
    27 OT DIIS     0.80E-01    3.3     0.00008327      -465.2262728536 -2.94E-04
    28 OT DIIS     0.80E-01    3.3     0.00007569      -465.2265571498 -2.84E-04
    29 OT DIIS     0.80E-01    3.1     0.00006885      -465.2268140484 -2.57E-04
    30 OT DIIS     0.80E-01    3.0     0.00006245      -465.2270408061 -2.27E-04
    31 OT DIIS     0.80E-01    3.2     0.00005677      -465.2272112310 -1.70E-04
    32 OT DIIS     0.80E-01    3.2     0.00005142      -465.2273791748 -1.68E-04
    33 OT DIIS     0.80E-01    3.4     0.00004617      -465.2275055529 -1.26E-04
    34 OT DIIS     0.80E-01    3.3     0.00004210      -465.2275957971 -9.02E-05
    35 OT DIIS     0.80E-01    3.1     0.00003802      -465.2276720605 -7.63E-05
    36 OT DIIS     0.80E-01    3.2     0.00003439      -465.2277367603 -6.47E-05
    37 OT DIIS     0.80E-01    3.3     0.00003121      -465.2277793110 -4.26E-05
    38 OT DIIS     0.80E-01    3.3     0.00002818      -465.2278157892 -3.65E-05
    39 OT DIIS     0.80E-01    3.3     0.00002555      -465.2278457546 -3.00E-05
    40 OT DIIS     0.80E-01    3.3     0.00002353      -465.2278655602 -1.98E-05
    41 OT DIIS     0.80E-01    3.1     0.00002194      -465.2278794308 -1.39E-05
    42 OT DIIS     0.80E-01    3.3     0.00002030      -465.2278939845 -1.46E-05
    43 OT DIIS     0.80E-01    3.3     0.00001874      -465.2279078744 -1.39E-05
    44 OT DIIS     0.80E-01    3.4     0.00001768      -465.2279175547 -9.68E-06
    45 OT DIIS     0.80E-01    3.1     0.00001651      -465.2279280050 -1.05E-05
    46 OT DIIS     0.80E-01    3.1     0.00001545      -465.2279384457 -1.04E-05
    47 OT DIIS     0.80E-01    3.4     0.00001444      -465.2279480605 -9.61E-06
    48 OT DIIS     0.80E-01    3.3     0.00001362      -465.2279560779 -8.02E-06
    49 OT DIIS     0.80E-01    3.2     0.00001290      -465.2279633151 -7.24E-06
    50 OT DIIS     0.80E-01    3.1     0.00001203      -465.2279721642 -8.85E-06
    51 OT DIIS     0.80E-01    3.1     0.00001124      -465.2279792775 -7.11E-06
    52 OT DIIS     0.80E-01    3.2     0.00001060      -465.2279848432 -5.57E-06
    53 OT DIIS     0.80E-01    3.1     0.00000984      -465.2279906908 -5.85E-06
    54 OT DIIS     0.80E-01    3.2     0.00000916      -465.2279953506 -4.66E-06
    55 OT DIIS     0.80E-01    3.3     0.00000852      -465.2279988423 -3.49E-06
    56 OT DIIS     0.80E-01    3.4     0.00000793      -465.2280017917 -2.95E-06
    57 OT DIIS     0.80E-01    3.2     0.00000739      -465.2280042585 -2.47E-06
    58 OT DIIS     0.80E-01    3.3     0.00000688      -465.2280062180 -1.96E-06
    59 OT DIIS     0.80E-01    3.3     0.00000647      -465.2280077090 -1.49E-06
    60 OT DIIS     0.80E-01    3.2     0.00000614      -465.2280089238 -1.21E-06
    61 OT DIIS     0.80E-01    3.6     0.00000586      -465.2280099231 -9.99E-07
    62 OT DIIS     0.80E-01    3.3     0.00000566      -465.2280106818 -7.59E-07
    63 OT DIIS     0.80E-01    3.2     0.00000547      -465.2280114676 -7.86E-07
    64 OT DIIS     0.80E-01    3.2     0.00000527      -465.2280123677 -9.00E-07
    65 OT DIIS     0.80E-01    3.5     0.00000512      -465.2280131100 -7.42E-07
    66 OT DIIS     0.80E-01    3.4     0.00000497      -465.2280139312 -8.21E-07
    67 OT DIIS     0.80E-01    3.4     0.00000480      -465.2280149047 -9.73E-07
    68 OT DIIS     0.80E-01    3.4     0.00000465      -465.2280157983 -8.94E-07
    69 OT DIIS     0.80E-01    3.4     0.00000454      -465.2280165690 -7.71E-07
    70 OT DIIS     0.80E-01    3.2     0.00000442      -465.2280173985 -8.29E-07
    71 OT DIIS     0.80E-01    3.5     0.00000429      -465.2280183904 -9.92E-07
    72 OT DIIS     0.80E-01    3.2     0.00000417      -465.2280193665 -9.76E-07
    73 OT DIIS     0.80E-01    3.3     0.00000409      -465.2280201497 -7.83E-07
    74 OT DIIS     0.80E-01    3.3     0.00000400      -465.2280210714 -9.22E-07
    75 OT DIIS     0.80E-01    3.4     0.00000392      -465.2280220416 -9.70E-07
    76 OT DIIS     0.80E-01    3.4     0.00000386      -465.2280227870 -7.45E-07
    77 OT DIIS     0.80E-01    3.4     0.00000380      -465.2280235641 -7.77E-07
    78 OT DIIS     0.80E-01    3.3     0.00000373      -465.2280244674 -9.03E-07
    79 OT DIIS     0.80E-01    3.3     0.00000367      -465.2280253898 -9.22E-07
    80 OT DIIS     0.80E-01    3.2     0.00000360      -465.2280263192 -9.29E-07
    81 OT DIIS     0.80E-01    3.0     0.00000355      -465.2280272404 -9.21E-07
    82 OT DIIS     0.80E-01    3.4     0.00000349      -465.2280282501 -1.01E-06
    83 OT DIIS     0.80E-01    3.2     0.00000344      -465.2280291385 -8.88E-07
    84 OT DIIS     0.80E-01    3.4     0.00000340      -465.2280300465 -9.08E-07
    85 OT DIIS     0.80E-01    3.4     0.00000336      -465.2280310275 -9.81E-07
    86 OT DIIS     0.80E-01    3.2     0.00000332      -465.2280319327 -9.05E-07
    87 OT DIIS     0.80E-01    3.4     0.00000328      -465.2280328840 -9.51E-07
    88 OT DIIS     0.80E-01    3.3     0.00000324      -465.2280340919 -1.21E-06
    89 OT DIIS     0.80E-01    3.2     0.00000320      -465.2280352045 -1.11E-06
    90 OT DIIS     0.80E-01    3.3     0.00000316      -465.2280362016 -9.97E-07
    91 OT DIIS     0.80E-01    3.3     0.00000312      -465.2280374358 -1.23E-06
    92 OT DIIS     0.80E-01    3.3     0.00000308      -465.2280387030 -1.27E-06
    93 OT DIIS     0.80E-01    3.3     0.00000304      -465.2280397837 -1.08E-06
    94 OT DIIS     0.80E-01    3.5     0.00000300      -465.2280409858 -1.20E-06
    95 OT DIIS     0.80E-01    3.3     0.00000296      -465.2280423574 -1.37E-06
    96 OT DIIS     0.80E-01    3.3     0.00000292      -465.2280435567 -1.20E-06
    97 OT DIIS     0.80E-01    3.5     0.00000289      -465.2280445247 -9.68E-07
    98 OT DIIS     0.80E-01    3.4     0.00000287      -465.2280457433 -1.22E-06
    99 OT DIIS     0.80E-01    3.2     0.00000284      -465.2280468070 -1.06E-06
   100 OT DIIS     0.80E-01    3.3     0.00000281      -465.2280477433 -9.36E-07
   101 OT DIIS     0.80E-01    3.2     0.00000279      -465.2280489585 -1.22E-06
   102 OT DIIS     0.80E-01    3.2     0.00000276      -465.2280502043 -1.25E-06
   103 OT DIIS     0.80E-01    3.1     0.00000274      -465.2280509075 -7.03E-07
   104 OT DIIS     0.80E-01    3.3     0.00000271      -465.2280521373 -1.23E-06
   105 OT DIIS     0.80E-01    3.2     0.00000266      -465.2280535208 -1.38E-06
   106 OT DIIS     0.80E-01    3.4     0.00000263      -465.2280550659 -1.55E-06
   107 OT DIIS     0.80E-01    3.2     0.00000260      -465.2280558360 -7.70E-07
   108 OT DIIS     0.80E-01    3.6     0.00000256      -465.2280570591 -1.22E-06
   109 OT DIIS     0.80E-01    3.5     0.00000252      -465.2280582376 -1.18E-06
   110 OT DIIS     0.80E-01    3.4     0.00000250      -465.2280592430 -1.01E-06
   111 OT DIIS     0.80E-01    3.2     0.00000247      -465.2280598828 -6.40E-07
   112 OT DIIS     0.80E-01    3.3     0.00000245      -465.2280607446 -8.62E-07
   113 OT DIIS     0.80E-01    3.3     0.00000243      -465.2280617637 -1.02E-06
   114 OT DIIS     0.80E-01    3.1     0.00000241      -465.2280627190 -9.55E-07
   115 OT DIIS     0.80E-01    3.4     0.00000239      -465.2280632965 -5.77E-07
   116 OT DIIS     0.80E-01    3.3     0.00000237      -465.2280642091 -9.13E-07
   117 OT DIIS     0.80E-01    3.4     0.00000234      -465.2280654152 -1.21E-06
   118 OT DIIS     0.80E-01    3.7     0.00000232      -465.2280662005 -7.85E-07
   119 OT DIIS     0.80E-01    3.3     0.00000230      -465.2280670804 -8.80E-07
   120 OT DIIS     0.80E-01    3.6     0.00000228      -465.2280678968 -8.16E-07
   121 OT DIIS     0.80E-01    3.3     0.00000227      -465.2280686488 -7.52E-07
   122 OT DIIS     0.80E-01    3.8     0.00000226      -465.2280691369 -4.88E-07
   123 OT DIIS     0.80E-01    3.2     0.00000225      -465.2280697414 -6.04E-07
   124 OT DIIS     0.80E-01    3.4     0.00000224      -465.2280705729 -8.32E-07
   125 OT DIIS     0.80E-01    3.2     0.00000222      -465.2280716776 -1.10E-06
   126 OT DIIS     0.80E-01    3.3     0.00000219      -465.2280725686 -8.91E-07
   127 OT DIIS     0.80E-01    3.2     0.00000217      -465.2280733757 -8.07E-07
   128 OT DIIS     0.80E-01    3.1     0.00000216      -465.2280741004 -7.25E-07
   129 OT DIIS     0.80E-01    3.4     0.00000215      -465.2280745238 -4.23E-07
   130 OT DIIS     0.80E-01    3.3     0.00000213      -465.2280754351 -9.11E-07
   131 OT DIIS     0.80E-01    3.4     0.00000211      -465.2280759719 -5.37E-07
   132 OT DIIS     0.80E-01    3.4     0.00000210      -465.2280765871 -6.15E-07
   133 OT DIIS     0.80E-01    3.4     0.00000208      -465.2280768670 -2.80E-07
   134 OT DIIS     0.80E-01    3.4     0.00000207      -465.2280772217 -3.55E-07
   135 OT DIIS     0.80E-01    3.2     0.00000206      -465.2280774693 -2.48E-07
   136 OT DIIS     0.80E-01    3.1     0.00000204      -465.2280776461 -1.77E-07
   137 OT DIIS     0.80E-01    3.3     0.00000203      -465.2280780271 -3.81E-07
   138 OT DIIS     0.80E-01    3.1     0.00000202      -465.2280781737 -1.47E-07
   139 OT DIIS     0.80E-01    3.3     0.00000202      -465.2280782405 -6.68E-08
   140 OT DIIS     0.80E-01    3.2     0.00000201      -465.2280784999 -2.59E-07
   141 OT DIIS     0.80E-01    3.3     0.00000201      -465.2280786422 -1.42E-07
   142 OT DIIS     0.80E-01    3.3     0.00000199      -465.2280793993 -7.57E-07
   143 OT DIIS     0.80E-01    3.2     0.00000197      -465.2280806402 -1.24E-06
   144 OT DIIS     0.80E-01    3.3     0.00000196      -465.2280816776 -1.04E-06
   145 OT DIIS     0.80E-01    3.3     0.00000194      -465.2280817626 -8.49E-08
   146 OT DIIS     0.80E-01    3.3     0.00000194      -465.2280833013 -1.54E-06
   147 OT DIIS     0.80E-01    3.4     0.00000191      -465.2280838208 -5.19E-07
   148 OT DIIS     0.80E-01    3.3     0.00000191      -465.2280841899 -3.69E-07
   149 OT DIIS     0.80E-01    3.4     0.00000190      -465.2280845104 -3.20E-07
   150 OT DIIS     0.80E-01    3.2     0.00000190      -465.2280851423 -6.32E-07
   151 OT DIIS     0.80E-01    3.5     0.00000191      -465.2280871743 -2.03E-06
   152 OT DIIS     0.80E-01    3.3     0.00000186      -465.2280876058 -4.31E-07
   153 OT DIIS     0.80E-01    3.2     0.00000183      -465.2280891944 -1.59E-06
   154 OT DIIS     0.80E-01    3.2     0.00000182      -465.2280900206 -8.26E-07
   155 OT DIIS     0.80E-01    3.3     0.00000183      -465.2280909017 -8.81E-07
   156 OT DIIS     0.80E-01    3.2     0.00000183      -465.2280909224 -2.07E-08
   157 OT DIIS     0.80E-01    3.3     0.00000179      -465.2280914511 -5.29E-07
   158 OT DIIS     0.80E-01    3.4     0.00000178      -465.2280917360 -2.85E-07
   159 OT SD       0.80E-01    3.3     0.00000380      -465.2280958098 -4.07E-06
   160 OT SD       0.80E-01    3.3     0.00000211      -465.2280958647 -5.49E-08
   161 OT DIIS     0.80E-01    3.4     0.00000186      -465.2280958884 -2.37E-08
   162 OT DIIS     0.80E-01    3.2     0.00000211      -465.2280978710 -1.98E-06
   163 OT DIIS     0.80E-01    3.5     0.00000357      -465.2281020739 -4.20E-06
   164 OT DIIS     0.80E-01    3.5     0.00000332      -465.2281040033 -1.93E-06
   165 OT DIIS     0.80E-01    3.2     0.00000184      -465.2281050323 -1.03E-06
   166 OT DIIS     0.80E-01    3.3     0.00000182      -465.2281067160 -1.68E-06
   167 OT DIIS     0.80E-01    3.1     0.00000569      -465.2281072904 -5.74E-07
   168 OT DIIS     0.80E-01    3.4     0.00000334      -465.2281083669 -1.08E-06
   169 OT DIIS     0.80E-01    3.3     0.00000161      -465.2281106605 -2.29E-06
   170 OT SD       0.80E-01    3.2     0.00000788      -465.2281109853 -3.25E-07
   171 OT DIIS     0.80E-01    3.2     0.00000296      -465.2281111812 -1.96E-07
   172 OT DIIS     0.80E-01    3.2     0.00000152      -465.2281125002 -1.32E-06
   173 OT SD       0.80E-01    3.2     0.00000400      -465.2281125966 -9.64E-08
   174 OT DIIS     0.80E-01    2.9     0.00000178      -465.2281126520 -5.53E-08
   175 OT SD       0.80E-01    3.2     0.00000121      -465.2281137979 -1.15E-06
   176 OT SD       0.80E-01    3.4     0.00000119      -465.2281138082 -1.04E-08
   177 OT DIIS     0.80E-01    3.4     0.00000118      -465.2281138184 -1.01E-08
   178 OT DIIS     0.80E-01    3.3     0.00000114      -465.2281145160 -6.98E-07
   179 OT DIIS     0.80E-01    3.3     0.00000113      -465.2281147212 -2.05E-07
   180 OT DIIS     0.80E-01    3.4     0.00000112      -465.2281148876 -1.66E-07
   181 OT DIIS     0.80E-01    3.2     0.00000110      -465.2281150524 -1.65E-07
   182 OT DIIS     0.80E-01    3.3     0.00000108      -465.2281151093 -5.68E-08
   183 OT DIIS     0.80E-01    3.3     0.00000107      -465.2281151783 -6.90E-08
   184 OT DIIS     0.80E-01    3.3     0.00000106      -465.2281153699 -1.92E-07
   185 OT DIIS     0.80E-01    3.2     0.00000105      -465.2281156985 -3.29E-07
   186 OT DIIS     0.80E-01    3.1     0.00000104      -465.2281158999 -2.01E-07
   187 OT DIIS     0.80E-01    3.3     0.00000103      -465.2281163171 -4.17E-07
   188 OT DIIS     0.80E-01    3.5     0.00000101      -465.2281167206 -4.03E-07
   189 OT DIIS     0.80E-01    3.5     0.00000101      -465.2281170159 -2.95E-07
   190 OT DIIS     0.80E-01    3.5     0.00000100      -465.2281172028 -1.87E-07

  *** SCF run converged in   190 steps ***


  Electronic density on regular grids:       -215.9999999960        0.0000000040
  Core density on regular grids:              215.9999999931       -0.0000000069
  Total charge density on r-space grids:       -0.0000000029
  Total charge density g-space grids:          -0.0000000029

  Overlap energy of the core charge distribution:               0.00000239512445
  Self energy of the core charge distribution:              -1197.37318491191672
  Core Hamiltonian energy:                                    351.48423576774536
  Hartree energy:                                             495.86426066910320
  Exchange-correlation energy:                               -115.10093490877546
  Dispersion energy:                                           -0.10249621412766

  Total energy:                                              -465.22811720284682

  outer SCF iter =    1 RMS gradient =   0.10E-05 energy =       -465.2281172028
  outer SCF loop converged in   1 iterations or  190 steps


 ENERGY| Total FORCE_EVAL ( QS ) energy [a.u.]:             -465.228117520755234

 --------  Informations at step =     0 ------------
  Optimization Method        =                 BFGS
  Total Energy               =      -465.2281175208
  Used time                  =              631.423
 ---------------------------------------------------

 --------------------------
 OPTIMIZATION STEP:      1
 --------------------------

 Number of electrons:                                                        216
 Number of occupied orbitals:                                                108
 Number of molecular orbitals:                                               108

 Number of orbital functions:                                                837
 Number of independent orbital functions:                                    837

 Extrapolation method: previous_p


 SCF WAVEFUNCTION OPTIMIZATION

  ----------------------------------- OT ---------------------------------------
  Minimizer      : DIIS                : direct inversion
                                         in the iterative subspace
                                         using   7 DIIS vectors
                                         safer DIIS on
  Preconditioner : FULL_SINGLE_INVERSE : inversion of 
                                         H + eS - 2*(Sc)(c^T*H*c+const)(Sc)^T
  Precond_solver : DEFAULT
  stepsize       :    0.08000000                  energy_gap     :    0.08000000
  eps_taylor     :   0.10000E-15                  max_taylor     :             4
  ----------------------------------- OT ---------------------------------------

  Step     Update method      Time    Convergence         Total energy    Change
  ------------------------------------------------------------------------------
     1 OT DIIS     0.80E-01    1.9     0.00181667      -464.7635863413 -4.65E+02
     2 OT DIIS     0.80E-01    3.1     0.00129127      -465.2611609145 -4.98E-01
     3 OT DIIS     0.80E-01    3.1     0.00068363      -465.2717880808 -1.06E-02
     4 OT DIIS     0.80E-01    3.0     0.00035827      -465.2753975106 -3.61E-03
     5 OT DIIS     0.80E-01    3.2     0.00008498      -465.2759531943 -5.56E-04
     6 OT DIIS     0.80E-01    3.0     0.00002824      -465.2760110598 -5.79E-05
     7 OT DIIS     0.80E-01    3.2     0.00000978      -465.2760179671 -6.91E-06
     8 OT DIIS     0.80E-01    3.2     0.00000390      -465.2760188028 -8.36E-07
     9 OT DIIS     0.80E-01    3.2     0.00000119      -465.2760189333 -1.31E-07
    10 OT DIIS     0.80E-01    3.2     0.00000047      -465.2760189477 -1.44E-08

  *** SCF run converged in    10 steps ***


  Electronic density on regular grids:       -215.9999999943        0.0000000057
  Core density on regular grids:              215.9999999929       -0.0000000071
  Total charge density on r-space grids:       -0.0000000014
  Total charge density g-space grids:          -0.0000000014

  Overlap energy of the core charge distribution:               0.00000115130863
  Self energy of the core charge distribution:              -1197.37318491191672
  Core Hamiltonian energy:                                    349.75430224515503
  Hartree energy:                                             497.09773479250532
  Exchange-correlation energy:                               -114.65254102739384
  Dispersion energy:                                           -0.10233119731165

  Total energy:                                              -465.27601894765320

  outer SCF iter =    1 RMS gradient =   0.47E-06 energy =       -465.2760189477
  outer SCF loop converged in   1 iterations or   10 steps


 ENERGY| Total FORCE_EVAL ( QS ) energy [a.u.]:             -465.276018949876402

 --------  Informations at step =     1 ------------
  Optimization Method        =                 BFGS
  Total Energy               =      -465.2760189499
  Real energy change         =        -0.0479014291
  Predicted change in energy =        -0.0476581570
  Scaling factor             =         0.0000000000
  Step size                  =         0.0790073227
  Trust radius               =         0.4724315332
  Decrease in energy         =                  YES
  Used time                  =               42.111

  Convergence check :
  Max. step size             =         0.0790073227
  Conv. limit for step size  =         0.0030000000
  Convergence in step size   =                   NO
  RMS step size              =         0.0431185648
  Conv. limit for RMS step   =         0.0015000000
  Convergence in RMS step    =                   NO
  Max. gradient              =         0.0072634154
  Conv. limit for gradients  =         0.0004500000
  Conv. for gradients        =                   NO
  RMS gradient               =         0.0043957209
  Conv. limit for RMS grad.  =         0.0003000000
  Conv. for gradients        =                   NO
 ---------------------------------------------------
 Estimated peak process memory after this step [MiB]                        1525

 --------------------------
 OPTIMIZATION STEP:      2
 --------------------------

 Number of electrons:                                                        216
 Number of occupied orbitals:                                                108
 Number of molecular orbitals:                                               108

 Number of orbital functions:                                                837
 Number of independent orbital functions:                                    837

 Extrapolation method: previous_p


 SCF WAVEFUNCTION OPTIMIZATION

  ----------------------------------- OT ---------------------------------------
  Minimizer      : DIIS                : direct inversion
                                         in the iterative subspace
                                         using   7 DIIS vectors
                                         safer DIIS on
  Preconditioner : FULL_SINGLE_INVERSE : inversion of 
                                         H + eS - 2*(Sc)(c^T*H*c+const)(Sc)^T
  Precond_solver : DEFAULT
  stepsize       :    0.08000000                  energy_gap     :    0.08000000
  eps_taylor     :   0.10000E-15                  max_taylor     :             4
  ----------------------------------- OT ---------------------------------------

  Step     Update method      Time    Convergence         Total energy    Change
  ------------------------------------------------------------------------------
     1 OT DIIS     0.80E-01    2.1     0.00129583      -465.0766370582 -4.65E+02
     2 OT DIIS     0.80E-01    3.3     0.00089863      -465.2839757646 -2.07E-01
     3 OT DIIS     0.80E-01    3.2     0.00048173      -465.2898495068 -5.87E-03
     4 OT DIIS     0.80E-01    3.5     0.00022344      -465.2916334062 -1.78E-03
     5 OT DIIS     0.80E-01    3.2     0.00005891      -465.2918940212 -2.61E-04
     6 OT DIIS     0.80E-01    3.1     0.00001810      -465.2919238686 -2.98E-05
     7 OT DIIS     0.80E-01    3.2     0.00000725      -465.2919267032 -2.83E-06
     8 OT DIIS     0.80E-01    3.2     0.00000255      -465.2919271912 -4.88E-07
     9 OT DIIS     0.80E-01    3.3     0.00000084      -465.2919272547 -6.35E-08

  *** SCF run converged in     9 steps ***


  Electronic density on regular grids:       -215.9999999985        0.0000000015
  Core density on regular grids:              215.9999999929       -0.0000000071
  Total charge density on r-space grids:       -0.0000000056
  Total charge density g-space grids:          -0.0000000056

  Overlap energy of the core charge distribution:               0.00000076306208
  Self energy of the core charge distribution:              -1197.37318491191672
  Core Hamiltonian energy:                                    348.96114372067319
  Hartree energy:                                             497.63919791428248
  Exchange-correlation energy:                               -114.41713851619396
  Dispersion energy:                                           -0.10194622457780

  Total energy:                                              -465.29192725467067

  outer SCF iter =    1 RMS gradient =   0.84E-06 energy =       -465.2919272547
  outer SCF loop converged in   1 iterations or    9 steps


 ENERGY| Total FORCE_EVAL ( QS ) energy [a.u.]:             -465.291927261408148

 --------  Informations at step =     2 ------------
  Optimization Method        =                 BFGS
  Total Energy               =      -465.2919272614
  Real energy change         =        -0.0159083115
  Predicted change in energy =        -0.0137869217
  Scaling factor             =         0.0000000000
  Step size                  =         0.0518660380
  Trust radius               =         0.4724315332
  Decrease in energy         =                  YES
  Used time                  =               39.723

  Convergence check :
  Max. step size             =         0.0518660380
  Conv. limit for step size  =         0.0030000000
  Convergence in step size   =                   NO
  RMS step size              =         0.0319421524
  Conv. limit for RMS step   =         0.0015000000
  Convergence in RMS step    =                   NO
  Max. gradient              =         0.0074770412
  Conv. limit for gradients  =         0.0004500000
  Conv. for gradients        =                   NO
  RMS gradient               =         0.0038064235
  Conv. limit for RMS grad.  =         0.0003000000
  Conv. for gradients        =                   NO
 ---------------------------------------------------
 Estimated peak process memory after this step [MiB]                        1529

 --------------------------
 OPTIMIZATION STEP:      3
 --------------------------

 Number of electrons:                                                        216
 Number of occupied orbitals:                                                108
 Number of molecular orbitals:                                               108

 Number of orbital functions:                                                837
 Number of independent orbital functions:                                    837

 Extrapolation method: previous_p


 SCF WAVEFUNCTION OPTIMIZATION

  ----------------------------------- OT ---------------------------------------
  Minimizer      : DIIS                : direct inversion
                                         in the iterative subspace
                                         using   7 DIIS vectors
                                         safer DIIS on
  Preconditioner : FULL_SINGLE_INVERSE : inversion of 
                                         H + eS - 2*(Sc)(c^T*H*c+const)(Sc)^T
  Precond_solver : DEFAULT
  stepsize       :    0.08000000                  energy_gap     :    0.08000000
  eps_taylor     :   0.10000E-15                  max_taylor     :             4
  ----------------------------------- OT ---------------------------------------

  Step     Update method      Time    Convergence         Total energy    Change
  ------------------------------------------------------------------------------
     1 OT DIIS     0.80E-01    1.9     0.00082785      -465.2482836256 -4.65E+02
     2 OT DIIS     0.80E-01    4.0     0.00053275      -465.2957010509 -4.74E-02
     3 OT DIIS     0.80E-01    3.9     0.00020135      -465.2984066377 -2.71E-03
     4 OT DIIS     0.80E-01    4.4     0.00008204      -465.2986604836 -2.54E-04
     5 OT DIIS     0.80E-01    4.2     0.00002609      -465.2987137040 -5.32E-05
     6 OT DIIS     0.80E-01    4.6     0.00001009      -465.2987194210 -5.72E-06
     7 OT DIIS     0.80E-01    4.0     0.00000332      -465.2987203749 -9.54E-07
     8 OT DIIS     0.80E-01    3.1     0.00000142      -465.2987204785 -1.04E-07
     9 OT DIIS     0.80E-01    3.3     0.00000047      -465.2987204992 -2.08E-08

  *** SCF run converged in     9 steps ***


  Electronic density on regular grids:       -216.0000000003       -0.0000000003
  Core density on regular grids:              215.9999999927       -0.0000000073
  Total charge density on r-space grids:       -0.0000000076
  Total charge density g-space grids:          -0.0000000076

  Overlap energy of the core charge distribution:               0.00000069122946
  Self energy of the core charge distribution:              -1197.37318491191672
  Core Hamiltonian energy:                                    348.81292642474284
  Hartree energy:                                             497.73524310120246
  Exchange-correlation energy:                               -114.37194468437204
  Dispersion energy:                                           -0.10176112012481

  Total energy:                                              -465.29872049923893

  outer SCF iter =    1 RMS gradient =   0.47E-06 energy =       -465.2987204992
  outer SCF loop converged in   1 iterations or    9 steps


 ENERGY| Total FORCE_EVAL ( QS ) energy [a.u.]:             -465.298720501430580

 --------  Informations at step =     3 ------------
  Optimization Method        =                 BFGS
  Total Energy               =      -465.2987205014
  Real energy change         =        -0.0067932400
  Predicted change in energy =        -0.0042746480
  Scaling factor             =         0.0000000000
  Step size                  =         0.0316052371
  Trust radius               =         0.4724315332
  Decrease in energy         =                  YES
  Used time                  =               44.523

  Convergence check :
  Max. step size             =         0.0316052371
  Conv. limit for step size  =         0.0030000000
  Convergence in step size   =                   NO
  RMS step size              =         0.0224299606
  Conv. limit for RMS step   =         0.0015000000
  Convergence in RMS step    =                   NO
  Max. gradient              =         0.0068013177
  Conv. limit for gradients  =         0.0004500000
  Conv. for gradients        =                   NO
  RMS gradient               =         0.0040889993
  Conv. limit for RMS grad.  =         0.0003000000
  Conv. for gradients        =                   NO
 ---------------------------------------------------
 Estimated peak process memory after this step [MiB]                        1559

 --------------------------
 OPTIMIZATION STEP:      4
 --------------------------

 Number of electrons:                                                        216
 Number of occupied orbitals:                                                108
 Number of molecular orbitals:                                               108

 Number of orbital functions:                                                837
 Number of independent orbital functions:                                    837

 Extrapolation method: previous_p


 SCF WAVEFUNCTION OPTIMIZATION

  ----------------------------------- OT ---------------------------------------
  Minimizer      : DIIS                : direct inversion
                                         in the iterative subspace
                                         using   7 DIIS vectors
                                         safer DIIS on
  Preconditioner : FULL_SINGLE_INVERSE : inversion of 
                                         H + eS - 2*(Sc)(c^T*H*c+const)(Sc)^T
  Precond_solver : DEFAULT
  stepsize       :    0.08000000                  energy_gap     :    0.08000000
  eps_taylor     :   0.10000E-15                  max_taylor     :             4
  ----------------------------------- OT ---------------------------------------

  Step     Update method      Time    Convergence         Total energy    Change
  ------------------------------------------------------------------------------
     1 OT DIIS     0.80E-01    2.6     0.00137487      -465.3201098520 -4.65E+02
     2 OT DIIS     0.80E-01    3.4     0.00087367      -465.2987073109  2.14E-02
     3 OT DIIS     0.80E-01    3.2     0.00022856      -465.3064632817 -7.76E-03
     4 OT DIIS     0.80E-01    3.1     0.00010110      -465.3068619792 -3.99E-04
     5 OT DIIS     0.80E-01    3.3     0.00003129      -465.3069527684 -9.08E-05
     6 OT DIIS     0.80E-01    3.3     0.00001495      -465.3069602105 -7.44E-06
     7 OT DIIS     0.80E-01    3.3     0.00000473      -465.3069623425 -2.13E-06
     8 OT DIIS     0.80E-01    3.2     0.00000177      -465.3069625625 -2.20E-07
     9 OT DIIS     0.80E-01    3.2     0.00000063      -465.3069625956 -3.31E-08

  *** SCF run converged in     9 steps ***


  Electronic density on regular grids:       -216.0000000020       -0.0000000020
  Core density on regular grids:              215.9999999928       -0.0000000072
  Total charge density on r-space grids:       -0.0000000092
  Total charge density g-space grids:          -0.0000000092

  Overlap energy of the core charge distribution:               0.00000072781076
  Self energy of the core charge distribution:              -1197.37318491191672
  Core Hamiltonian energy:                                    349.00208368290760
  Hartree energy:                                             497.58617155102127
  Exchange-correlation energy:                               -114.42054899023366
  Dispersion energy:                                           -0.10148465515159

  Total energy:                                              -465.30696259556225

  outer SCF iter =    1 RMS gradient =   0.63E-06 energy =       -465.3069625956
  outer SCF loop converged in   1 iterations or    9 steps


 ENERGY| Total FORCE_EVAL ( QS ) energy [a.u.]:             -465.306962599717508

 --------  Informations at step =     4 ------------
  Optimization Method        =                 BFGS
  Total Energy               =      -465.3069625997
  Real energy change         =        -0.0082420983
  Predicted change in energy =        -0.0065595283
  Scaling factor             =         0.0000000000
  Step size                  =         0.0666216086
  Trust radius               =         0.4724315332
  Decrease in energy         =                  YES
  Used time                  =               41.191

  Convergence check :
  Max. step size             =         0.0666216086
  Conv. limit for step size  =         0.0030000000
  Convergence in step size   =                   NO
  RMS step size              =         0.0381804712
  Conv. limit for RMS step   =         0.0015000000
  Convergence in RMS step    =                   NO
  Max. gradient              =         0.0050207788
  Conv. limit for gradients  =         0.0004500000
  Conv. for gradients        =                   NO
  RMS gradient               =         0.0034112474
  Conv. limit for RMS grad.  =         0.0003000000
  Conv. for gradients        =                   NO
 ---------------------------------------------------
 Estimated peak process memory after this step [MiB]                        1559

 --------------------------
 OPTIMIZATION STEP:      5
 --------------------------

 Number of electrons:                                                        216
 Number of occupied orbitals:                                                108
 Number of molecular orbitals:                                               108

 Number of orbital functions:                                                837
 Number of independent orbital functions:                                    837

 Extrapolation method: previous_p


 SCF WAVEFUNCTION OPTIMIZATION

  ----------------------------------- OT ---------------------------------------
  Minimizer      : DIIS                : direct inversion
                                         in the iterative subspace
                                         using   7 DIIS vectors
                                         safer DIIS on
  Preconditioner : FULL_SINGLE_INVERSE : inversion of 
                                         H + eS - 2*(Sc)(c^T*H*c+const)(Sc)^T
  Precond_solver : DEFAULT
  stepsize       :    0.08000000                  energy_gap     :    0.08000000
  eps_taylor     :   0.10000E-15                  max_taylor     :             4
  ----------------------------------- OT ---------------------------------------

  Step     Update method      Time    Convergence         Total energy    Change
  ------------------------------------------------------------------------------
     1 OT DIIS     0.80E-01    1.9     0.00134029      -465.3135384718 -4.65E+02
     2 OT DIIS     0.80E-01    3.4     0.00085818      -465.3067072460  6.83E-03
     3 OT DIIS     0.80E-01    3.6     0.00024614      -465.3142483688 -7.54E-03
     4 OT DIIS     0.80E-01    3.7     0.00010990      -465.3147032049 -4.55E-04
     5 OT DIIS     0.80E-01    3.5     0.00002972      -465.3148093476 -1.06E-04
     6 OT DIIS     0.80E-01    3.3     0.00001480      -465.3148158503 -6.50E-06
     7 OT DIIS     0.80E-01    3.3     0.00000490      -465.3148179373 -2.09E-06
     8 OT DIIS     0.80E-01    3.2     0.00000182      -465.3148181766 -2.39E-07
     9 OT DIIS     0.80E-01    3.1     0.00000072      -465.3148182110 -3.43E-08

  *** SCF run converged in     9 steps ***


  Electronic density on regular grids:       -215.9999999974        0.0000000026
  Core density on regular grids:              215.9999999930       -0.0000000070
  Total charge density on r-space grids:       -0.0000000043
  Total charge density g-space grids:          -0.0000000043

  Overlap energy of the core charge distribution:               0.00000073948911
  Self energy of the core charge distribution:              -1197.37318491191672
  Core Hamiltonian energy:                                    349.15144547789703
  Hartree energy:                                             497.47311104118194
  Exchange-correlation energy:                               -114.46504604957195
  Dispersion energy:                                           -0.10114450804425

  Total energy:                                              -465.31481821096469

  outer SCF iter =    1 RMS gradient =   0.72E-06 energy =       -465.3148182110
  outer SCF loop converged in   1 iterations or    9 steps


 ENERGY| Total FORCE_EVAL ( QS ) energy [a.u.]:             -465.314818216476056

 --------  Informations at step =     5 ------------
  Optimization Method        =                 BFGS
  Total Energy               =      -465.3148182165
  Real energy change         =        -0.0078556168
  Predicted change in energy =        -0.0039318930
  Scaling factor             =         0.0000000000
  Step size                  =         0.0588981932
  Trust radius               =         0.4724315332
  Decrease in energy         =                  YES
  Used time                  =               40.085

  Convergence check :
  Max. step size             =         0.0588981932
  Conv. limit for step size  =         0.0030000000
  Convergence in step size   =                   NO
  RMS step size              =         0.0326030789
  Conv. limit for RMS step   =         0.0015000000
  Convergence in RMS step    =                   NO
  Max. gradient              =         0.0071949450
  Conv. limit for gradients  =         0.0004500000
  Conv. for gradients        =                   NO
  RMS gradient               =         0.0034978195
  Conv. limit for RMS grad.  =         0.0003000000
  Conv. for gradients        =                   NO
 ---------------------------------------------------
 Estimated peak process memory after this step [MiB]                        1569

 --------------------------
 OPTIMIZATION STEP:      6
 --------------------------

  Step is scaled; Scaling factor =  0.18635

 Number of electrons:                                                        216
 Number of occupied orbitals:                                                108
 Number of molecular orbitals:                                               108

 Number of orbital functions:                                                837
 Number of independent orbital functions:                                    837

 Extrapolation method: previous_p


 SCF WAVEFUNCTION OPTIMIZATION

  ----------------------------------- OT ---------------------------------------
  Minimizer      : DIIS                : direct inversion
                                         in the iterative subspace
                                         using   7 DIIS vectors
                                         safer DIIS on
  Preconditioner : FULL_SINGLE_INVERSE : inversion of 
                                         H + eS - 2*(Sc)(c^T*H*c+const)(Sc)^T
  Precond_solver : DEFAULT
  stepsize       :    0.08000000                  energy_gap     :    0.08000000
  eps_taylor     :   0.10000E-15                  max_taylor     :             4
  ----------------------------------- OT ---------------------------------------

  Step     Update method      Time    Convergence         Total energy    Change
  ------------------------------------------------------------------------------
     1 OT DIIS     0.80E-01    1.8     0.01137745      -461.0324500323 -4.61E+02
     2 OT DIIS     0.80E-01    3.2     0.01027859      -464.0784947768 -3.05E+00
     3 OT DIIS     0.80E-01    3.0     0.00593735      -464.4274460637 -3.49E-01
     4 OT DIIS     0.80E-01    3.1     0.00434290      -464.7155229367 -2.88E-01
     5 OT DIIS     0.80E-01    3.4     0.00138057      -464.7735700254 -5.80E-02
     6 OT DIIS     0.80E-01    3.1     0.00025171      -464.7827962567 -9.23E-03
     7 OT DIIS     0.80E-01    3.1     0.00011278      -464.7833196588 -5.23E-04
     8 OT DIIS     0.80E-01    3.1     0.00004221      -464.7834379008 -1.18E-04
     9 OT DIIS     0.80E-01    2.9     0.00001868      -464.7834548536 -1.70E-05
    10 OT DIIS     0.80E-01    3.2     0.00000845      -464.7834583160 -3.46E-06
    11 OT DIIS     0.80E-01    3.0     0.00000426      -464.7834589623 -6.46E-07
    12 OT DIIS     0.80E-01    3.1     0.00000187      -464.7834591518 -1.90E-07
    13 OT DIIS     0.80E-01    3.1     0.00000104      -464.7834591867 -3.49E-08
    14 OT DIIS     0.80E-01    3.1     0.00000044      -464.7834591995 -1.27E-08

  *** SCF run converged in    14 steps ***


  Electronic density on regular grids:       -215.9999999936        0.0000000064
  Core density on regular grids:              215.9999999930       -0.0000000070
  Total charge density on r-space grids:       -0.0000000006
  Total charge density g-space grids:          -0.0000000006

  Overlap energy of the core charge distribution:               0.00000001110801
  Self energy of the core charge distribution:              -1197.37318491191672
  Core Hamiltonian energy:                                    342.50037753692561
  Hartree energy:                                             502.65486647973086
  Exchange-correlation energy:                               -112.46457875859659
  Dispersion energy:                                           -0.10093955671106

  Total energy:                                              -464.78345919945980

  outer SCF iter =    1 RMS gradient =   0.44E-06 energy =       -464.7834591995
  outer SCF loop converged in   1 iterations or   14 steps


 ENERGY| Total FORCE_EVAL ( QS ) energy [a.u.]:             -464.783459201387700

 --------  Informations at step =     6 ------------
  Optimization Method        =                 BFGS
  Total Energy               =      -464.7834592014
  Real energy change         =         0.5313590151
  Predicted change in energy =        -0.0572778840
  Scaling factor             =         0.1863547388
  Step size                  =         0.4724315332
  Trust radius               =         0.4724315332
  Decrease in energy         =                   NO
  Used time                  =               52.927

  Convergence check :
  Max. step size             =         0.4724315332
  Conv. limit for step size  =         0.0030000000
  Convergence in step size   =                   NO
  RMS step size              =         0.2660337636
  Conv. limit for RMS step   =         0.0015000000
  Convergence in RMS step    =                   NO
  Max. gradient              =         0.0864708219
  Conv. limit for gradients  =         0.0004500000
  Conv. for gradients        =                   NO
  RMS gradient               =         0.0455423287
  Conv. limit for RMS grad.  =         0.0003000000
  Conv. for gradients        =                   NO
 ---------------------------------------------------
 Estimated peak process memory after this step [MiB]                        1569

 --------------------------
 OPTIMIZATION STEP:      7
 --------------------------

 Number of electrons:                                                        216
 Number of occupied orbitals:                                                108
 Number of molecular orbitals:                                               108

 Number of orbital functions:                                                837
 Number of independent orbital functions:                                    837

 Extrapolation method: previous_p


 SCF WAVEFUNCTION OPTIMIZATION

  ----------------------------------- OT ---------------------------------------
  Minimizer      : DIIS                : direct inversion
                                         in the iterative subspace
                                         using   7 DIIS vectors
                                         safer DIIS on
  Preconditioner : FULL_SINGLE_INVERSE : inversion of 
                                         H + eS - 2*(Sc)(c^T*H*c+const)(Sc)^T
  Precond_solver : DEFAULT
  stepsize       :    0.08000000                  energy_gap     :    0.08000000
  eps_taylor     :   0.10000E-15                  max_taylor     :             4
  ----------------------------------- OT ---------------------------------------

  Step     Update method      Time    Convergence         Total energy    Change
  ------------------------------------------------------------------------------
     1 OT DIIS     0.80E-01    2.0     0.01028081      -465.9137035291 -4.66E+02
     2 OT DIIS     0.80E-01    3.3     0.00683471      -464.8306799578  1.08E+00
     3 OT DIIS     0.80E-01    3.1     0.00235805      -465.2647292168 -4.34E-01
     4 OT DIIS     0.80E-01    3.0     0.00103865      -465.3104094904 -4.57E-02
     5 OT DIIS     0.80E-01    3.1     0.00040389      -465.3178176640 -7.41E-03
     6 OT DIIS     0.80E-01    3.1     0.00013134      -465.3192991258 -1.48E-03
     7 OT DIIS     0.80E-01    3.1     0.00004441      -465.3194522532 -1.53E-04
     8 OT DIIS     0.80E-01    3.0     0.00002003      -465.3194706230 -1.84E-05
     9 OT DIIS     0.80E-01    3.3     0.00000760      -465.3194750226 -4.40E-06
    10 OT DIIS     0.80E-01    3.1     0.00000293      -465.3194756675 -6.45E-07
    11 OT DIIS     0.80E-01    3.1     0.00000137      -465.3194757565 -8.91E-08
    12 OT DIIS     0.80E-01    3.2     0.00000063      -465.3194757763 -1.98E-08

  *** SCF run converged in    12 steps ***


  Electronic density on regular grids:       -215.9999999932        0.0000000068
  Core density on regular grids:              215.9999999927       -0.0000000073
  Total charge density on r-space grids:       -0.0000000004
  Total charge density g-space grids:          -0.0000000004

  Overlap energy of the core charge distribution:               0.00000109471672
  Self energy of the core charge distribution:              -1197.37318491191672
  Core Hamiltonian energy:                                    350.05654863298230
  Hartree energy:                                             496.81985143598985
  Exchange-correlation energy:                               -114.72171147825649
  Dispersion energy:                                           -0.10098054984767

  Total energy:                                              -465.31947577633207

  outer SCF iter =    1 RMS gradient =   0.63E-06 energy =       -465.3194757763
  outer SCF loop converged in   1 iterations or   12 steps


 ENERGY| Total FORCE_EVAL ( QS ) energy [a.u.]:             -465.319475780827588

 --------  Informations at step =     7 ------------
  Optimization Method        =                 BFGS
  Total Energy               =      -465.3194757808
  Real energy change         =        -0.5360165794
  Predicted change in energy =        -0.7324236513
  Scaling factor             =         0.1863547388
  Step size                  =         0.4241962856
  Trust radius               =         0.4724315332
  Decrease in energy         =                  YES
  Used time                  =               47.389

  Convergence check :
  Max. step size             =         0.4241962856
  Conv. limit for step size  =         0.0030000000
  Convergence in step size   =                   NO
  RMS step size              =         0.2453238030
  Conv. limit for RMS step   =         0.0015000000
  Convergence in RMS step    =                   NO
  Max. gradient              =         0.0080160817
  Conv. limit for gradients  =         0.0004500000
  Conv. for gradients        =                   NO
  RMS gradient               =         0.0036745604
  Conv. limit for RMS grad.  =         0.0003000000
  Conv. for gradients        =                   NO
 ---------------------------------------------------
 Estimated peak process memory after this step [MiB]                        1572

 --------------------------
 OPTIMIZATION STEP:      8
 --------------------------

 Number of electrons:                                                        216
 Number of occupied orbitals:                                                108
 Number of molecular orbitals:                                               108

 Number of orbital functions:                                                837
 Number of independent orbital functions:                                    837

 Extrapolation method: previous_p


 SCF WAVEFUNCTION OPTIMIZATION

  ----------------------------------- OT ---------------------------------------
  Minimizer      : DIIS                : direct inversion
                                         in the iterative subspace
                                         using   7 DIIS vectors
                                         safer DIIS on
  Preconditioner : FULL_SINGLE_INVERSE : inversion of 
                                         H + eS - 2*(Sc)(c^T*H*c+const)(Sc)^T
  Precond_solver : DEFAULT
  stepsize       :    0.08000000                  energy_gap     :    0.08000000
  eps_taylor     :   0.10000E-15                  max_taylor     :             4
  ----------------------------------- OT ---------------------------------------

  Step     Update method      Time    Convergence         Total energy    Change
  ------------------------------------------------------------------------------
     1 OT DIIS     0.80E-01    2.0     0.00028279      -465.1878633419 -4.65E+02
     2 OT DIIS     0.80E-01    3.0     0.00026152      -465.3206290820 -1.33E-01
     3 OT DIIS     0.80E-01    3.0     0.00015755      -465.3208666424 -2.38E-04
     4 OT DIIS     0.80E-01    3.0     0.00008591      -465.3210554557 -1.89E-04
     5 OT DIIS     0.80E-01    3.1     0.00002677      -465.3210808328 -2.54E-05
     6 OT DIIS     0.80E-01    3.0     0.00000705      -465.3210846418 -3.81E-06
     7 OT DIIS     0.80E-01    3.0     0.00000180      -465.3210850806 -4.39E-07
     8 OT DIIS     0.80E-01    3.2     0.00000066      -465.3210851085 -2.78E-08

  *** SCF run converged in     8 steps ***


  Electronic density on regular grids:       -215.9999999925        0.0000000075
  Core density on regular grids:              215.9999999928       -0.0000000072
  Total charge density on r-space grids:        0.0000000002
  Total charge density g-space grids:           0.0000000002

  Overlap energy of the core charge distribution:               0.00000085000516
  Self energy of the core charge distribution:              -1197.37318491191672
  Core Hamiltonian energy:                                    349.54729257033659
  Hartree energy:                                             497.18499877600971
  Exchange-correlation energy:                               -114.57927060759360
  Dispersion energy:                                           -0.10092178531929

  Total energy:                                              -465.32108510847820

  outer SCF iter =    1 RMS gradient =   0.66E-06 energy =       -465.3210851085
  outer SCF loop converged in   1 iterations or    8 steps


 ENERGY| Total FORCE_EVAL ( QS ) energy [a.u.]:             -465.321085112574849

 --------  Informations at step =     8 ------------
  Optimization Method        =                 BFGS
  Total Energy               =      -465.3210851126
  Real energy change         =        -0.0016093317
  Predicted change in energy =        -0.0020705986
  Scaling factor             =         0.1863547388
  Step size                  =         0.0161355262
  Trust radius               =         0.4724315332
  Decrease in energy         =                  YES
  Used time                  =               34.207

  Convergence check :
  Max. step size             =         0.0161355262
  Conv. limit for step size  =         0.0030000000
  Convergence in step size   =                   NO
  RMS step size              =         0.0062074921
  Conv. limit for RMS step   =         0.0015000000
  Convergence in RMS step    =                   NO
  Max. gradient              =         0.0022135196
  Conv. limit for gradients  =         0.0004500000
  Conv. for gradients        =                   NO
  RMS gradient               =         0.0011494720
  Conv. limit for RMS grad.  =         0.0003000000
  Conv. for gradients        =                   NO
 ---------------------------------------------------
 Estimated peak process memory after this step [MiB]                        1572

 --------------------------
 OPTIMIZATION STEP:      9
 --------------------------

 Number of electrons:                                                        216
 Number of occupied orbitals:                                                108
 Number of molecular orbitals:                                               108

 Number of orbital functions:                                                837
 Number of independent orbital functions:                                    837

 Extrapolation method: previous_p


 SCF WAVEFUNCTION OPTIMIZATION

  ----------------------------------- OT ---------------------------------------
  Minimizer      : DIIS                : direct inversion
                                         in the iterative subspace
                                         using   7 DIIS vectors
                                         safer DIIS on
  Preconditioner : FULL_SINGLE_INVERSE : inversion of 
                                         H + eS - 2*(Sc)(c^T*H*c+const)(Sc)^T
  Precond_solver : DEFAULT
  stepsize       :    0.08000000                  energy_gap     :    0.08000000
  eps_taylor     :   0.10000E-15                  max_taylor     :             4
  ----------------------------------- OT ---------------------------------------

  Step     Update method      Time    Convergence         Total energy    Change
  ------------------------------------------------------------------------------
     1 OT DIIS     0.80E-01    1.8     0.00033808      -465.3414748389 -4.65E+02
     2 OT DIIS     0.80E-01    3.2     0.00021958      -465.3216413308  1.98E-02
     3 OT DIIS     0.80E-01    3.2     0.00006801      -465.3221333410 -4.92E-04
     4 OT DIIS     0.80E-01    3.3     0.00003257      -465.3221619908 -2.86E-05
     5 OT DIIS     0.80E-01    3.3     0.00000927      -465.3221708299 -8.84E-06
     6 OT DIIS     0.80E-01    3.4     0.00000368      -465.3221715248 -6.95E-07
     7 OT DIIS     0.80E-01    3.2     0.00000142      -465.3221716468 -1.22E-07
     8 OT DIIS     0.80E-01    3.4     0.00000058      -465.3221716664 -1.96E-08

  *** SCF run converged in     8 steps ***


  Electronic density on regular grids:       -215.9999999927        0.0000000073
  Core density on regular grids:              215.9999999927       -0.0000000073
  Total charge density on r-space grids:        0.0000000000
  Total charge density g-space grids:           0.0000000000

  Overlap energy of the core charge distribution:               0.00000087621664
  Self energy of the core charge distribution:              -1197.37318491191672
  Core Hamiltonian energy:                                    349.63370345024600
  Hartree energy:                                             497.12088879346521
  Exchange-correlation energy:                               -114.60272737188119
  Dispersion energy:                                           -0.10085250254788

  Total energy:                                              -465.32217166641783

  outer SCF iter =    1 RMS gradient =   0.58E-06 energy =       -465.3221716664
  outer SCF loop converged in   1 iterations or    8 steps


 ENERGY| Total FORCE_EVAL ( QS ) energy [a.u.]:             -465.322171669807460

 --------  Informations at step =     9 ------------
  Optimization Method        =                 BFGS
  Total Energy               =      -465.3221716698
  Real energy change         =        -0.0010865572
  Predicted change in energy =        -0.0006838157
  Scaling factor             =         0.1863547388
  Step size                  =         0.0220618769
  Trust radius               =         0.4724315332
  Decrease in energy         =                  YES
  Used time                  =               35.319

  Convergence check :
  Max. step size             =         0.0220618769
  Conv. limit for step size  =         0.0030000000
  Convergence in step size   =                   NO
  RMS step size              =         0.0088390401
  Conv. limit for RMS step   =         0.0015000000
  Convergence in RMS step    =                   NO
  Max. gradient              =         0.0011314712
  Conv. limit for gradients  =         0.0004500000
  Conv. for gradients        =                   NO
  RMS gradient               =         0.0005605479
  Conv. limit for RMS grad.  =         0.0003000000
  Conv. for gradients        =                   NO
 ---------------------------------------------------
 Estimated peak process memory after this step [MiB]                        1572

 --------------------------
 OPTIMIZATION STEP:     10
 --------------------------

 Number of electrons:                                                        216
 Number of occupied orbitals:                                                108
 Number of molecular orbitals:                                               108

 Number of orbital functions:                                                837
 Number of independent orbital functions:                                    837

 Extrapolation method: previous_p


 SCF WAVEFUNCTION OPTIMIZATION

  ----------------------------------- OT ---------------------------------------
  Minimizer      : DIIS                : direct inversion
                                         in the iterative subspace
                                         using   7 DIIS vectors
                                         safer DIIS on
  Preconditioner : FULL_SINGLE_INVERSE : inversion of 
                                         H + eS - 2*(Sc)(c^T*H*c+const)(Sc)^T
  Precond_solver : DEFAULT
  stepsize       :    0.08000000                  energy_gap     :    0.08000000
  eps_taylor     :   0.10000E-15                  max_taylor     :             4
  ----------------------------------- OT ---------------------------------------

  Step     Update method      Time    Convergence         Total energy    Change
  ------------------------------------------------------------------------------
     1 OT DIIS     0.80E-01    2.0     0.00068065      -465.3273488767 -4.65E+02
     2 OT DIIS     0.80E-01    3.5     0.00044230      -465.3211262441  6.22E-03
     3 OT DIIS     0.80E-01    3.3     0.00012905      -465.3231451014 -2.02E-03
     4 OT DIIS     0.80E-01    3.3     0.00005874      -465.3232670390 -1.22E-04
     5 OT DIIS     0.80E-01    3.1     0.00001664      -465.3232960205 -2.90E-05
     6 OT DIIS     0.80E-01    3.3     0.00000706      -465.3232981428 -2.12E-06
     7 OT DIIS     0.80E-01    3.0     0.00000262      -465.3232986074 -4.65E-07
     8 OT DIIS     0.80E-01    3.2     0.00000109      -465.3232986737 -6.64E-08
     9 OT DIIS     0.80E-01    3.1     0.00000045      -465.3232986854 -1.17E-08

  *** SCF run converged in     9 steps ***


  Electronic density on regular grids:       -215.9999999933        0.0000000067
  Core density on regular grids:              215.9999999931       -0.0000000069
  Total charge density on r-space grids:       -0.0000000002
  Total charge density g-space grids:          -0.0000000002

  Overlap energy of the core charge distribution:               0.00000088107861
  Self energy of the core charge distribution:              -1197.37318491191672
  Core Hamiltonian energy:                                    349.68341810640749
  Hartree energy:                                             497.08148113356089
  Exchange-correlation energy:                               -114.61430532771448
  Dispersion energy:                                           -0.10070856680371

  Total energy:                                              -465.32329868538778

  outer SCF iter =    1 RMS gradient =   0.45E-06 energy =       -465.3232986854
  outer SCF loop converged in   1 iterations or    9 steps


 ENERGY| Total FORCE_EVAL ( QS ) energy [a.u.]:             -465.323298687436818

 --------  Informations at step =    10 ------------
  Optimization Method        =                 BFGS
  Total Energy               =      -465.3232986874
  Real energy change         =        -0.0011270176
  Predicted change in energy =        -0.0010739246
  Scaling factor             =         0.1863547388
  Step size                  =         0.0540127817
  Trust radius               =         0.4724315332
  Decrease in energy         =                  YES
  Used time                  =               38.905

  Convergence check :
  Max. step size             =         0.0540127817
  Conv. limit for step size  =         0.0030000000
  Convergence in step size   =                   NO
  RMS step size              =         0.0213739479
  Conv. limit for RMS step   =         0.0015000000
  Convergence in RMS step    =                   NO
  Max. gradient              =         0.0040001586
  Conv. limit for gradients  =         0.0004500000
  Conv. for gradients        =                   NO
  RMS gradient               =         0.0013951370
  Conv. limit for RMS grad.  =         0.0003000000
  Conv. for gradients        =                   NO
 ---------------------------------------------------
 Estimated peak process memory after this step [MiB]                        1580

 --------------------------
 OPTIMIZATION STEP:     11
 --------------------------

 Number of electrons:                                                        216
 Number of occupied orbitals:                                                108
 Number of molecular orbitals:                                               108

 Number of orbital functions:                                                837
 Number of independent orbital functions:                                    837

 Extrapolation method: previous_p


 SCF WAVEFUNCTION OPTIMIZATION

  ----------------------------------- OT ---------------------------------------
  Minimizer      : DIIS                : direct inversion
                                         in the iterative subspace
                                         using   7 DIIS vectors
                                         safer DIIS on
  Preconditioner : FULL_SINGLE_INVERSE : inversion of 
                                         H + eS - 2*(Sc)(c^T*H*c+const)(Sc)^T
  Precond_solver : DEFAULT
  stepsize       :    0.08000000                  energy_gap     :    0.08000000
  eps_taylor     :   0.10000E-15                  max_taylor     :             4
  ----------------------------------- OT ---------------------------------------

  Step     Update method      Time    Convergence         Total energy    Change
  ------------------------------------------------------------------------------
     1 OT DIIS     0.80E-01    2.1     0.00015085      -465.3378591882 -4.65E+02
     2 OT DIIS     0.80E-01    3.1     0.00010345      -465.3236838521  1.42E-02
     3 OT DIIS     0.80E-01    3.1     0.00005444      -465.3237669516 -8.31E-05
     4 OT DIIS     0.80E-01    3.4     0.00002363      -465.3237879666 -2.10E-05
     5 OT DIIS     0.80E-01    3.2     0.00000789      -465.3237910032 -3.04E-06
     6 OT DIIS     0.80E-01    3.3     0.00000224      -465.3237914907 -4.88E-07
     7 OT DIIS     0.80E-01    3.2     0.00000097      -465.3237915329 -4.22E-08

  *** SCF run converged in     7 steps ***


  Electronic density on regular grids:       -215.9999999928        0.0000000072
  Core density on regular grids:              215.9999999930       -0.0000000070
  Total charge density on r-space grids:        0.0000000002
  Total charge density g-space grids:           0.0000000002

  Overlap energy of the core charge distribution:               0.00000089773309
  Self energy of the core charge distribution:              -1197.37318491191672
  Core Hamiltonian energy:                                    349.73526577637182
  Hartree energy:                                             497.04296685257492
  Exchange-correlation energy:                               -114.62815477350642
  Dispersion energy:                                           -0.10068537420635

  Total energy:                                              -465.32379153294971

  outer SCF iter =    1 RMS gradient =   0.97E-06 energy =       -465.3237915329
  outer SCF loop converged in   1 iterations or    7 steps


 ENERGY| Total FORCE_EVAL ( QS ) energy [a.u.]:             -465.323791541799153

 --------  Informations at step =    11 ------------
  Optimization Method        =                 BFGS
  Total Energy               =      -465.3237915418
  Real energy change         =        -0.0004928544
  Predicted change in energy =        -0.0003576426
  Scaling factor             =         0.1863547388
  Step size                  =         0.0187786028
  Trust radius               =         0.4724315332
  Decrease in energy         =                  YES
  Used time                  =               32.173

  Convergence check :
  Max. step size             =         0.0187786028
  Conv. limit for step size  =         0.0030000000
  Convergence in step size   =                   NO
  RMS step size              =         0.0068717951
  Conv. limit for RMS step   =         0.0015000000
  Convergence in RMS step    =                   NO
  Max. gradient              =         0.0062726820
  Conv. limit for gradients  =         0.0004500000
  Conv. for gradients        =                   NO
  RMS gradient               =         0.0012558404
  Conv. limit for RMS grad.  =         0.0003000000
  Conv. for gradients        =                   NO
 ---------------------------------------------------
 Estimated peak process memory after this step [MiB]                        1580

 --------------------------
 OPTIMIZATION STEP:     12
 --------------------------

 Number of electrons:                                                        216
 Number of occupied orbitals:                                                108
[...]
 ---------------------------------------------------
 Estimated peak process memory after this step [MiB]                        1621

 *******************************************************************************
 ***                    GEOMETRY OPTIMIZATION COMPLETED                      ***
 *******************************************************************************

                    Reevaluating energy at the minimum

 Number of electrons:                                                        216
 Number of occupied orbitals:                                                108
 Number of molecular orbitals:                                               108

 Number of orbital functions:                                                837
 Number of independent orbital functions:                                    837

 Extrapolation method: previous_p


 SCF WAVEFUNCTION OPTIMIZATION

  ----------------------------------- OT ---------------------------------------
  Minimizer      : DIIS                : direct inversion
                                         in the iterative subspace
                                         using   7 DIIS vectors
                                         safer DIIS on
  Preconditioner : FULL_SINGLE_INVERSE : inversion of 
                                         H + eS - 2*(Sc)(c^T*H*c+const)(Sc)^T
  Precond_solver : DEFAULT
  stepsize       :    0.08000000                  energy_gap     :    0.08000000
  eps_taylor     :   0.10000E-15                  max_taylor     :             4
  ----------------------------------- OT ---------------------------------------

  Step     Update method      Time    Convergence         Total energy    Change
  ------------------------------------------------------------------------------
     1 OT DIIS     0.80E-01    2.1     0.00000017      -465.4048755976 -4.65E+02

  *** SCF run converged in     1 steps ***


  Electronic density on regular grids:       -215.9999999923        0.0000000077
  Core density on regular grids:              215.9999999930       -0.0000000070
  Total charge density on r-space grids:        0.0000000007
  Total charge density g-space grids:           0.0000000007

  Overlap energy of the core charge distribution:               0.00000087340926
  Self energy of the core charge distribution:              -1197.37318491191672
  Core Hamiltonian energy:                                    349.49218327788435
  Hartree energy:                                             497.14337742079658
  Exchange-correlation energy:                               -114.56318406050167
  Dispersion energy:                                           -0.10406819725314

  Total energy:                                              -465.40487559758122

  outer SCF iter =    1 RMS gradient =   0.17E-06 energy =       -465.4048755976
  outer SCF loop converged in   1 iterations or    1 steps


 ENERGY| Total FORCE_EVAL ( QS ) energy [a.u.]:             -465.404875597581224

 -------------------------------------------------------------------------------
 -                                                                             -
 -                                DBCSR STATISTICS                             -
 -                                                                             -
 -------------------------------------------------------------------------------
 COUNTER                                    TOTAL       BLAS       SMM       ACC
 flops    13 x    12 x    12             11119680       0.0%    100.0%      0.0%
 flops    12 x    12 x   837             13258080       0.0%    100.0%      0.0%
 flops     9 x    12 x    12             15396480       0.0%    100.0%      0.0%
 flops    32 x    12 x   837             35354880       0.0%    100.0%      0.0%
 flops    13 x    32 x    12             44478720       0.0%    100.0%      0.0%
 flops    13 x    12 x    32             44478720       0.0%    100.0%      0.0%
 flops     9 x    32 x    12             61585920       0.0%    100.0%      0.0%
 flops     9 x    12 x    32             61585920       0.0%    100.0%      0.0%
 flops    12 x    32 x   837             70709760       0.0%    100.0%      0.0%
 flops    13 x    32 x    32            474439680       0.0%    100.0%      0.0%
 flops    32 x    32 x   837            565678080       0.0%    100.0%      0.0%
 flops     9 x    32 x    32            656916480       0.0%    100.0%      0.0%
 flops    12 x   108 x   108           1439430912       0.0%    100.0%      0.0%
 flops    31 x   108 x   108           2270747520       0.0%    100.0%      0.0%
 flops    31 x   108 x   837           3951209160       0.0%    100.0%      0.0%
 flops    13 x    12 x    13           4659954624       0.0%    100.0%      0.0%
 flops    12 x   108 x   837           5521387680       0.0%    100.0%      0.0%
 flops    13 x    12 x     9           6452244864       0.0%    100.0%      0.0%
 flops     9 x    12 x    13           6452244864       0.0%    100.0%      0.0%
 flops     9 x    12 x     9           8933877504       0.0%    100.0%      0.0%
 flops    13 x    13 x   108          10486869120       0.0%    100.0%      0.0%
 flops    32 x   108 x   108          11515447296       0.0%    100.0%      0.0%
 flops    13 x     9 x   108          14001698880       0.0%    100.0%      0.0%
 flops     9 x    13 x   108          14001698880       0.0%    100.0%      0.0%
 flops     9 x     9 x   108          19745985600       0.0%    100.0%      0.0%
 flops    75 x   108 x   108          21974976000       0.0%    100.0%      0.0%
 flops    71 x   108 x   108          31204465920       0.0%    100.0%      0.0%
 flops    13 x    32 x    13          37279636992       0.0%    100.0%      0.0%
 flops    75 x   108 x   837          38237508000       0.0%    100.0%      0.0%
 flops    32 x   108 x   837          44171101440       0.0%    100.0%      0.0%
 flops    13 x    32 x     9          51617958912       0.0%    100.0%      0.0%
 flops     9 x    32 x    13          51617958912       0.0%    100.0%      0.0%
 flops    71 x   108 x   837          54297261360       0.0%    100.0%      0.0%
 flops     9 x    32 x     9          71471020032       0.0%    100.0%      0.0%
 flops inhomo. stacks                 16056662400     100.0%      0.0%      0.0%
 flops total                       529.416349E+09       3.0%     97.0%      0.0%
 flops max/rank                    529.416349E+09       3.0%     97.0%      0.0%
 matmuls inhomo. stacks                      3845     100.0%      0.0%      0.0%
 matmuls total                           44051042       0.0%    100.0%      0.0%
 number of processed stacks                272914       1.4%     98.6%      0.0%
 average stack size                                     1.0     163.7       0.0
 marketing flops                   588.453052E+09
 -------------------------------------------------------------------------------
 # multiplications                          14088
 max memory usage/rank               1.699725E+09
 # max total images/rank                        1
 # max 3D layers                                1
 # MPI messages exchanged                       0
 -------------------------------------------------------------------------------
 -                                                                             -
 -                      DBCSR MESSAGE PASSING PERFORMANCE                      -
 -                                                                             -
 -------------------------------------------------------------------------------
 ROUTINE             CALLS      AVE VOLUME [Bytes]
 MP_Bcast               35                     12.
 MP_Allreduce        74817                     10.
 MP_Alltoall         47194                 144992.
 MP_ISend            56132                  13647.
 MP_IRecv            56132                  13647.
 -------------------------------------------------------------------------------

 -------------------------------------------------------------------------------
 -                                                                             -
 -                                DBM STATISTICS                               -
 -                                                                             -
 -------------------------------------------------------------------------------
    M  x    N  x    K                                          COUNT     PERCENT
 -------------------------------------------------------------------------------

 -------------------------------------------------------------------------------
 -                                                                             -
 -                                GRID STATISTICS                              -
 -                                                                             -
 -------------------------------------------------------------------------------
 LP    KERNEL             BACKEND                              COUNT     PERCENT
 2     collocate ortho    CPU                              260878513      29.23%
 2     integrate ortho    CPU                              240528243      26.95%
 3     integrate ortho    CPU                              170132047      19.06%
 3     collocate ortho    CPU                              162864334      18.25%
 4     integrate ortho    CPU                               33568564       3.76%
 4     collocate ortho    CPU                               22871462       2.56%
 5     integrate ortho    CPU                                1752007       0.20%
 0     collocate general  CPU                                   4455       0.00%
 1     integrate general  CPU                                   4374       0.00%
 -------------------------------------------------------------------------------

 MEMORY| Estimated peak process memory [MiB]                                1621

 -------------------------------------------------------------------------------
 -                                                                             -
 -                         MESSAGE PASSING PERFORMANCE                         -
 -                                                                             -
 -------------------------------------------------------------------------------

 ROUTINE             CALLS      AVE VOLUME [Bytes]
 MP_Group                5
 MP_Bcast            23124                   1439.
 MP_Allreduce        62580                   1194.
 MP_Sync               272
 MP_comm_split         267
 -------------------------------------------------------------------------------


 -------------------------------------------------------------------------------
 -                                                                             -
 -                           R E F E R E N C E S                               -
 -                                                                             -
 -------------------------------------------------------------------------------
 
 CP2K version 2024.1, the CP2K developers group (2024).
 CP2K is freely available from https://www.cp2k.org/ .

 Kuehne,Thomas D.; Iannuzzi,Marcella; Del Ben,Mauro;
 Rybkin,Vladimir V.; Seewald,Patrick; Stein,Frederick; Laino,Teodoro;
 Khaliullin,Rustam Z.; Schuett,Ole; Schiffmann,Florian; Golze,Dorothea;
 Wilhelm,Jan; Chulkov,Sergey; Bani-Hashemian,Mohammad Hossein;
 Weber,Valery; Borstnik,Urban; Taillefumier,Mathieu;
 Jakobovits,Alice Shoshana; Lazzaro,Alfio; Pabst,Hans; Mueller,Tiziano;
 Schade,Robert; Guidon,Manuel; Andermatt,Samuel; Holmberg,Nico;
 Schenter,Gregory K.; Hehn,Anna; Bussy,Augustin; Belleflamme,Fabian;
 Tabacchi,Gloria; Gloess,Andreas; Lass,Michael; Bethune,Iain;
 Mundy,Christopher J.; Plessl,Christian; Watkins,Matt;
 VandeVondele,Joost; Krack,Matthias; Hutter,Juerg. 
 The Journal of Chemical Physics, 152 (19), (2020). 
 CP2K: An electronic structure and molecular dynamics software package -
 Quickstep: Efficient and accurate electronic structure calculations.
 https://doi.org/10.1063/5.0007045

 Goerigk, Lars; Hansen, Andreas; Bauer, Christoph; Ehrlich, Stephan;
 Najibi, Asim; Grimme, Stefan. , 19 (48), (2017). 
 A look at the density functional theory zoo with the advanced GMTKN55 database
 for general main group thermochemistry, kinetics and noncovalent interactions.
 https://doi.org/10.1039/C7CP04913G

 Schuett, Ole; Messmer, Peter; Hutter, Juerg; VandeVondele, Joost. 
 Electronic Structure Calculations on Graphics Processing Units, John
 Wiley & Sons, Ltd, 173-190 (2016). 
 GPU-Accelerated Sparse Matrix-Matrix Multiplication for
 Linear Scaling Density Functional Theory.
 https://doi.org/10.1002/9781118670712.ch8

 Heinecke, A; Henry, G; Hutchinson, M; Pabst, H. 
 Proceedings of Intl. Supercomputing Conference, 981-991 (2016). 
 LIBXSMM: Accelerating Small Matrix Multiplications
 by Runtime Code Generation.
 https://doi.org/10.1109/SC.2016.83

 Borstnik, U; VandeVondele, J; Weber, V; Hutter, J. 
 PARALLEL COMPUTING, 40 (5-6), 47-58 (2014). 
 Sparse matrix multiplication: The distributed block-compressed sparse
 row library.
 https://doi.org/10.1016/j.parco.2014.03.012

 Hutter, J; Iannuzzi, M; Schiffmann, F; VandeVondele, J. 
 WIREs Comput Mol Sci., 4 (1), 15-25 (2014). 
 CP2K: atomistic simulations of condensed matter systems.
 https://doi.org/10.1002/wcms.1159

 Grimme, S; Ehrlich, S; Goerigk, L. 
 JOURNAL OF COMPUTATIONAL CHEMISTRY, 32, 1456 (2011). 
 Effect of the damping function in dispersion corrected density functional theory.
 https://doi.org/10.1002/jcc.21759

 Grimme, S; Antony, J; Ehrlich, S; Krieg, H. 
 JOURNAL OF CHEMICAL PHYSICS, 132 (15), 154104 (2010). 
 A consistent and accurate ab initio parametrization of density
 functional dispersion correction (DFT-D) for the 94 elements H-Pu.
 https://doi.org/10.1063/1.3382344

 VandeVondele, J; Hutter, J. 
 JOURNAL OF CHEMICAL PHYSICS, 127 (11), 114105 (2007). 
 Gaussian basis sets for accurate calculations on molecular systems in
 gas and condensed phases.
 https://doi.org/10.1063/1.2770708

 Krack, M. 
 THEORETICAL CHEMISTRY ACCOUNTS, 114 (1-3), 145-152 (2005). 
 Pseudopotentials for H to Kr optimized for gradient-corrected
 exchange-correlation functionals.
 https://doi.org/10.1007/s00214-005-0655-y

 VandeVondele, J; Krack, M; Mohamed, F; Parrinello, M; Chassaing, T;
 Hutter, J. COMPUTER PHYSICS COMMUNICATIONS, 167 (2), 103-128 (2005). 
 QUICKSTEP: Fast and accurate density functional calculations using a
 mixed Gaussian and plane waves approach.
 https://doi.org/10.1016/j.cpc.2004.12.014

 Frigo, M; Johnson, SG. 
 PROCEEDINGS OF THE IEEE, 93 (2), 216-231 (2005). 
 The design and implementation of FFTW3.
 https://doi.org/10.1109/JPROC.2004.840301

 VandeVondele, J; Hutter, J. 
 JOURNAL OF CHEMICAL PHYSICS, 118 (10), 4365-4369 (2003). 
 An efficient orbital transformation method for electronic structure
 calculations.
 https://doi.org/10.1063/1.1543154

 Hartwigsen, C; Goedecker, S; Hutter, J. 
 PHYSICAL REVIEW B, 58 (7), 3641-3662 (1998). 
 Relativistic separable dual-space Gaussian pseudopotentials from H to Rn.
 https://doi.org/10.1103/PhysRevB.58.3641

 Lippert, G; Hutter, J; Parrinello, M. 
 MOLECULAR PHYSICS, 92 (3), 477-487 (1997). 
 A hybrid Gaussian and plane wave density functional scheme.
 https://doi.org/10.1080/002689797170220

 Perdew, JP; Burke, K; Ernzerhof, M. 
 PHYSICAL REVIEW LETTERS, 77 (18), 3865-3868 (1996). 
 Generalized gradient approximation made simple.
 https://doi.org/10.1103/PhysRevLett.77.3865

 Goedecker, S; Teter, M; Hutter, J. 
 PHYSICAL REVIEW B, 54 (3), 1703-1710 (1996). 
 Separable dual-space Gaussian pseudopotentials.
 https://doi.org/10.1103/PhysRevB.54.1703


 -------------------------------------------------------------------------------
 -                                                                             -
 -                                T I M I N G                                  -
 -                                                                             -
 -------------------------------------------------------------------------------
 SUBROUTINE                       CALLS  ASD         SELF TIME        TOTAL TIME
                                MAXIMUM       AVERAGE  MAXIMUM  AVERAGE  MAXIMUM
 CP2K                                 1  1.0    0.040    0.040 2825.605 2825.605
 cp_geo_opt                           1  2.0    0.000    0.000 2825.167 2825.167
 geoopt_bfgs                          1  3.0    0.042    0.042 2825.166 2825.166
 cp_eval_at                          55  4.0    0.005    0.005 2823.253 2823.253
 qs_forces                           54  5.0    0.005    0.005 2815.819 2815.819
 qs_energies                         55  6.0    0.006    0.006 2505.277 2505.277
 scf_env_do_scf                      55  7.0    0.005    0.005 2267.796 2267.796
 scf_env_do_scf_inner_loop          650  8.0    0.373    0.373 2153.229 2153.229
 rebuild_ks_matrix                  704  9.8    0.003    0.003 1388.268 1388.268
 qs_ks_build_kohn_sham_matrix       704 10.8    0.084    0.084 1388.265 1388.265
 qs_ks_update_qs_env                705  9.0    0.007    0.007 1243.483 1243.483
 sum_up_and_integrate               704 11.8    0.011    0.011 1151.682 1151.682
 integrate_v_rspace                 704 12.8    0.274    0.274 1151.040 1151.040
 grid_integrate_task_list           704 13.8 1129.600 1129.600 1129.600 1129.600
 qs_rho_update_rho_low              705  9.1    0.003    0.003 1065.655 1065.655
 calculate_rho_elec                 705 10.1    4.966    4.966 1065.651 1065.651
 grid_collocate_task_list           705 11.1 1021.492 1021.492 1021.492 1021.492
 qs_vxc_create                      704 11.8    0.009    0.009  200.309  200.309
 xc_vxc_pw_create                   704 12.8    6.260    6.260  200.300  200.300
 pw_transfer                      14845 13.9    0.965    0.965  178.590  178.590
 fft_wrap_pw1pw2                  13437 15.1    0.116    0.116  175.690  175.690
 build_core_hamiltonian_matrix_      54  6.0    0.004    0.004  172.451  172.451
 fft_wrap_pw1pw2_250               7801 16.5    0.795    0.795  169.941  169.941
 qs_energies_init_hamiltonians       55  7.0    0.001    0.001  151.663  151.663
 qs_ks_update_qs_env_forces          54  6.0    0.000    0.000  145.506  145.506
 xc_rho_set_and_dset_create         704 13.8    4.912    4.912  122.769  122.769
 init_scf_loop                       55  8.0    0.001    0.001  114.448  114.448
 fft3d_s                          13438 17.1  107.465  107.465  107.494  107.494
 xc_pw_derive                      4224 14.8    0.035    0.035  105.825  105.825
 build_core_ppl_forces               54  7.0   98.844   98.844   98.844   98.844
 init_scf_run                        55  7.0    0.002    0.002   84.744   84.744
 scf_env_initial_rho_setup           55  8.0    0.002    0.002   84.742   84.742
 wfi_extrapolate                     55  9.0    0.002    0.002   83.165   83.165
 build_core_hamiltonian_matrix       55  8.0    0.004    0.004   79.377   79.377
 xc_pw_divergence                   704 13.8    0.020    0.020   70.291   70.291
 xc_functional_eval                 704 14.8    0.008    0.008   61.499   61.499
 pbe_lda_eval                       704 15.8   61.491   61.491   61.491   61.491
 -------------------------------------------------------------------------------

 The number of warnings for this run is : 0
 
 -------------------------------------------------------------------------------
  **** **** ******  **  PROGRAM ENDED AT                 2024-06-14 16:36:02.536
 ***** ** ***  *** **   PROGRAM RAN ON                           DESKTOP-F0MB4IA
 **    ****   ******    PROGRAM RAN BY                                    lenard
 ***** **    ** ** **   PROGRAM PROCESS ID                                 41226
  **** **  *******  **  PROGRAM STOPPED IN /mnt/e/Cell_Packing/Water_Sim/MyMulti
                                           ply
