      81
 i =        1, E =      -465.2760189499
  O         1.4830195325        1.1889426811        1.4573108291
  O         1.4829580464        1.1890411599        4.7572619572
  O         1.4829752779        1.1889786627        8.0571230625
  O         1.4833910280        3.9004710525        1.4572580972
  O         1.4828650878        3.9006475346        4.7572830760
  O         1.4829755593        3.9006258875        8.0571579037
  O         1.4831524045        6.6122154577        1.4571427774
  O         1.4829690998        6.6122742942        4.7572500268
  O         1.4829927604        6.6122779211        8.0571708054
  O         4.8355502514        1.1889960709        1.4573326082
  O         4.8356092141        1.1889279291        4.7572503609
  O         4.8355557302        1.1890341169        8.0571739173
  O         4.8355305857        3.9006523292        1.4573267505
  O         4.8356972215        3.9006063344        4.7572027850
  O         4.8356255904        3.9005844094        8.0571187723
  O         4.8355525213        6.6123192686        1.4573309880
  O         4.8356243202        6.6123118446        4.7572266621
  O         4.8355270984        6.6122936216        8.0571705685
  O         8.1882285827        1.1889439072        1.4572976679
  O         8.1881889788        1.1889745922        4.7572493749
  O         8.1881702221        1.1889757064        8.0571575558
  O         8.1881095541        3.9006903470        1.4573212814
  O         8.1880177994        3.9007445665        4.7573551198
  O         8.1880620748        3.9007198252        8.0572099957
  O         8.1881790739        6.6122679631        1.4572962111
  O         8.1880655629        6.6123487272        4.7573108361
  O         8.1882620219        6.6122690621        8.0571413201
  H         1.8059264480        0.9624819079        2.3436277499
  H         1.8059248055        0.9624561711        5.6435107897
  H         1.8059134655        0.9624895047        8.9434394819
  H         1.8057698740        3.6742174159        2.3437695786
  H         1.8060726775        3.6741723313        5.6435109031
  H         1.8059108550        3.6741526140        8.9434708473
  H         1.8057727621        6.3858427341        2.3436421291
  H         1.8059303814        6.3858081057        5.6435583150
  H         1.8059500216        6.3857936497        8.9434633410
  H         5.1585702473        0.9624983420        2.3436100832
  H         5.1585660351        0.9625184993        5.6435624936
  H         5.1585167485        0.9624560872        8.9434339885
  H         5.1585578118        3.6741466497        2.3435959441
  H         5.1584984484        3.6741677982        5.6435499980
  H         5.1585123002        3.6741834387        8.9434741971
  H         5.1585439367        6.3857691035        2.3435984569
  H         5.1585333998        6.3857257265        5.6435150771
  H         5.1585836227        6.3858129631        8.9434373923
  H         8.5112095573        0.9624868498        2.3435913803
  H         8.5111706999        0.9625045582        5.6435317763
  H         8.5111478500        0.9625035658        8.9434656370
  H         8.5111831275        3.6741573965        2.3435633544
  H         8.5112231889        3.6741126471        5.6435191942
  H         8.5112145426        3.6740854194        8.9434241633
  H         8.5111894567        6.3858040876        2.3435946624
  H         8.5111946506        6.3857861985        5.6435140930
  H         8.5111553710        6.3857811753        8.9434500827
  H         1.9123924233        2.0445170492        1.2997775627
  H         1.9124698808        2.0445381079        4.5997092450
  H         1.9124391437        2.0445507486        7.8996769024
  H         1.9122137179        4.7562901819        1.2997530307
  H         1.9124378225        4.7561147545        4.5996617235
  H         1.9124539869        4.7561553812        7.8996186705
  H         1.9124450600        7.4678869600        1.2998487646
  H         1.9124222591        7.4678192681        4.5996958485
  H         1.9124090332        7.4678497401        7.8996525902
  H         5.2650547128        2.0445179227        1.2997741781
  H         5.2649903978        2.0445158789        4.5996890728
  H         5.2651110161        2.0445256320        7.8996500668
  H         5.2650679833        4.7561698071        1.2998006057
  H         5.2650219731        4.7562215183        4.5997328730
  H         5.2650455869        4.7561745246        7.8996726603
  H         5.2650833833        7.4678255118        1.2997836485
  H         5.2650281364        7.4678767607        4.5997245731
  H         5.2650667683        7.4678126148        7.8996506402
  H         8.6175855144        2.0445366536        1.2998082560
  H         8.6176675669        2.0445111657        4.5997083717
  H         8.6176901379        2.0445147521        7.8996588339
  H         8.6177041768        4.7561608200        1.2997930972
  H         8.6177364796        4.7561557255        4.5996166313
  H         8.6177082659        4.7561657555        7.8996240462
  H         8.6176356906        7.4678320178        1.2998295701
  H         8.6177403729        7.4677592148        4.5996546856
  H         8.6176171697        7.4678652452        7.8996496251
      81
 i =        2, E =      -465.2919272614
  O         1.5094979134        1.1715493916        1.4544082408
  O         1.5094808324        1.1716754259        4.7543289860
  O         1.5095058307        1.1716390830        8.0542463237
  O         1.5095299526        3.8830419697        1.4543357369
  O         1.5094909817        3.8833037663        4.7543814033
  O         1.5094980734        3.8832623242        8.0542620452
  O         1.5095347211        6.5948689162        1.4543264982
  O         1.5094945070        6.5949167324        4.7543369133
  O         1.5095101014        6.5949126455        8.0542623687
  O         4.8621171418        1.1716406027        1.4544248890
  O         4.8621194385        1.1715537026        4.7543512620
  O         4.8621024439        1.1716806324        8.0542524867
  O         4.8621286482        3.8833009334        1.4544200301
  O         4.8621185295        3.8832474753        4.7543156862
  O         4.8621434284        3.8832413608        8.0542448770
  O         4.8621089036        6.5949633656        1.4544124285
  O         4.8620895917        6.5949376947        4.7543094611
  O         4.8621174512        6.5949476027        8.0542854804
  O         8.2147421296        1.1715788981        1.4544086020
  O         8.2147426093        1.1716244224        4.7543349777
  O         8.2147293606        1.1716334589        8.0542790832
  O         8.2147288182        3.8833439139        1.4544283458
  O         8.2146712013        3.8833760929        4.7543834905
  O         8.2146874159        3.8833692769        8.0542928536
  O         8.2147554956        6.5949210933        1.4544171958
  O         8.2147093049        6.5949884883        4.7543634661
  O         8.2147349940        6.5949128854        8.0542380641
  H         1.7962975941        0.9713191086        2.3710412448
  H         1.7962892226        0.9712900314        5.6709135075
  H         1.7962646758        0.9712675064        8.9708608134
  H         1.7961321265        3.6831820198        2.3711148760
  H         1.7964522342        3.6829372367        5.6709296546
  H         1.7962745960        3.6829617849        8.9708880280
  H         1.7960968376        6.3946273389        2.3710616342
  H         1.7962835932        6.3946158813        5.6709615536
  H         1.7963217965        6.3946070573        8.9708703267
  H         5.1489346735        0.9712965165        2.3710251764
  H         5.1489322143        0.9713361198        5.6709812137
  H         5.1488650898        0.9712681961        8.9708470103
  H         5.1489147597        3.6829314871        2.3710217735
  H         5.1488582360        3.6829981927        5.6709554585
  H         5.1488426064        3.6829568679        8.9709016673
  H         5.1489026544        6.3945795632        2.3710094342
  H         5.1489099611        6.3945691337        5.6709035459
  H         5.1489397614        6.3945848664        8.9708758770
  H         8.5015766548        0.9712840823        2.3710106476
  H         8.5015261533        0.9712961110        5.6709421606
  H         8.5014981940        0.9712821917        8.9708971598
  H         8.5015306383        3.6829288725        2.3710096796
  H         8.5016107471        3.6829609154        5.6709238725
  H         8.5015890108        3.6828815523        8.9708381333
  H         8.5015290603        6.3945663570        2.3710312112
  H         8.5015551531        6.3945811108        5.6709308308
  H         8.5015183028        6.3945988538        8.9708491052
  H         1.9015548129        2.0540760696        1.2791533574
  H         1.9016488116        2.0541353530        4.5790922141
  H         1.9015985845        2.0541559644        7.8790104054
  H         1.9013190273        4.7657274723        1.2792405473
  H         1.9016079067        4.7657613402        4.5789700001
  H         1.9016186997        4.7657463883        7.8789737977
  H         1.9015888296        7.4774259456        1.2791866978
  H         1.9015881993        7.4774166878        4.5790533405
  H         1.9015636522        7.4774424455        7.8790136510
  H         5.2542100620        2.0541377723        1.2791194169
  H         5.2541344582        2.0540967478        4.5790355277
  H         5.2542993365        2.0541346728        7.8790208208
  H         5.2542357713        4.7657954602        1.2791342522
  H         5.2541736444        4.7657793079        4.5790970329
  H         5.2541993637        4.7657721614        7.8789977193
  H         5.2542592260        7.4774363546        1.2791498944
  H         5.2541890438        7.4774515061        4.5791284250
  H         5.2542288148        7.4774337565        7.8789578524
  H         8.6067175652        2.0541355999        1.2791489823
  H         8.6068183834        2.0541320319        4.5790561479
  H         8.6068495283        2.0541248804        7.8789811509
  H         8.6068687955        4.7658028703        1.2790977430
  H         8.6069242644        4.7657912166        4.5789959607
  H         8.6068977832        4.7658010000        7.8789705963
  H         8.6067837980        7.4774553240        1.2791407200
  H         8.6069331150        7.4774003140        4.5790021216
  H         8.6067651799        7.4774536295        7.8790205883
      81
 i =        3, E =      -465.2987205014
  O         1.5167577758        1.1548715049        1.4586530162
  O         1.5167439001        1.1549905320        4.7585427564
  O         1.5167421029        1.1549658243        8.0584690725
  O         1.5167255719        3.8665312819        1.4587318132
  O         1.5167537476        3.8666153680        4.7585446884
  O         1.5167451352        3.8665957342        8.0584889648
  O         1.5167301010        6.5782170724        1.4586404068
  O         1.5167346219        6.5782668170        4.7585523390
  O         1.5167619491        6.5782585369        8.0584893776
  O         4.8693713749        1.1549678787        1.4586259840
  O         4.8693599631        1.1549070084        4.7585845351
  O         4.8693695452        1.1549920261        8.0584540027
  O         4.8693874350        3.8666205598        1.4586138823
  O         4.8693474898        3.8666043673        4.7585769104
  O         4.8693766657        3.8666009956        8.0584775000
  O         4.8693721926        6.5782822535        1.4586153286
  O         4.8693401512        6.5782688906        4.7585553455
  O         4.8693658915        6.5782593950        8.0584776166
  O         8.2219789388        1.1549307776        1.4586412750
  O         8.2219976133        1.1549682232        4.7585356926
  O         8.2219653406        1.1549638793        8.0584917715
  O         8.2219856354        3.8666191427        1.4586040352
  O         8.2219615547        3.8666650771        4.7585371968
  O         8.2219600823        3.8666451910        8.0584585643
  O         8.2220023103        6.5782436289        1.4586176313
  O         8.2219954483        6.5782815323        4.7585175150
  O         8.2219773441        6.5782753145        8.0584748745
  H         1.7880319488        0.9847344709        2.3870634374
  H         1.7880250148        0.9847365343        5.6869309812
  H         1.7880108047        0.9847277489        8.9868611222
  H         1.7878271214        3.6964178219        2.3871622704
  H         1.7882040515        3.6964288068        5.6869000177
  H         1.7880222150        3.6964030035        8.9868870324
  H         1.7878471114        6.4080337165        2.3870793818
  H         1.7880170622        6.4080487903        5.6869439044
  H         1.7880644374        6.4080388078        8.9868722013
  H         5.1406826290        0.9847584834        2.3870129418
  H         5.1406678724        0.9847755155        5.6869852492
  H         5.1405987679        0.9847227973        8.9868555062
  H         5.1406632229        3.6964048444        2.3870121784
  H         5.1405943285        3.6964020311        5.6869745031
  H         5.1405744461        3.6963956602        8.9868947485
  H         5.1406421602        6.4080436355        2.3870118562
  H         5.1406482502        6.4079981648        5.6869257727
  H         5.1406884254        6.4080689594        8.9868692005
  H         8.4933175468        0.9847265199        2.3870153648
  H         8.4932657145        0.9847454564        5.6869301101
  H         8.4932476886        0.9847556537        8.9868885737
  H         8.4932820893        3.6964331052        2.3870093460
  H         8.4933584825        3.6964615546        5.6869122847
  H         8.4933432074        3.6963882230        8.9868244437
  H         8.4932648479        6.4080389342        2.3870218298
  H         8.4932969080        6.4080690585        5.6869171196
  H         8.4932522742        6.4080266672        8.9868558787
  H         1.8848400708        2.0495355255        1.2684089345
  H         1.8849331768        2.0496032495        4.5683533993
  H         1.8848931669        2.0496042596        7.8682955073
  H         1.8846037950        4.7612407231        1.2683112344
  H         1.8849124452        4.7612377945        4.5683166464
  H         1.8849102155        4.7612129091        7.8682513116
  H         1.8848702600        7.4728549897        1.2684196540
  H         1.8848902454        7.4728885340        4.5683288641
  H         1.8848573700        7.4729106338        7.8682694042
  H         5.2375021933        2.0496058096        1.2684158772
  H         5.2374296782        2.0495606519        4.5683018435
  H         5.2375941352        2.0496022291        7.8683076720
  H         5.2375355728        4.7612564890        1.2684356594
  H         5.2374625868        4.7612394735        4.5683174442
  H         5.2375042100        4.7612391800        7.8682722120
  H         5.2375535255        7.4729030128        1.2684399787
  H         5.2374681787        7.4729168784        4.5683717631
  H         5.2375271199        7.4728828428        7.8682636362
  H         8.5900101606        2.0496057316        1.2684045336
  H         8.5901100878        2.0496144620        4.5683462280
  H         8.5901456325        2.0495764956        7.8682756420
  H         8.5901541803        4.7612468046        1.2684178310
  H         8.5902060979        4.7612561347        4.5683288120
  H         8.5901914044        4.7612503997        7.8683019552
  H         8.5900845871        7.4729096783        1.2684380246
  H         8.5902302585        7.4728766211        4.5683364025
  H         8.5900596567        7.4729333704        7.8682693044
      81
 i =        4, E =      -465.3069625997
  O         1.5278968995        1.1306979662        1.4700250377
  O         1.5279082011        1.1306772483        4.7698863075
  O         1.5278688497        1.1307136506        8.0698534676
  O         1.5275360342        3.8423207004        1.4699560541
  O         1.5279874641        3.8424152391        4.7699140689
  O         1.5278761086        3.8423709069        8.0698577270
  O         1.5277170657        6.5539820747        1.4700556601
  O         1.5278404288        6.5540393697        4.7698985996
  O         1.5279165943        6.5540096956        8.0698179487
  O         4.8805614988        1.1307200663        1.4699712673
  O         4.8804735451        1.1307357202        4.7699379443
  O         4.8805739979        1.1306889970        8.0698111274
  O         4.8806240264        3.8423669119        1.4699675390
  O         4.8804003116        3.8423415684        4.7699152017
  O         4.8805113374        3.8423792497        8.0698309187
  O         4.8805800940        6.5540105511        1.4699697713
  O         4.8804486587        6.5539845980        4.7699077248
  O         4.8805524937        6.5540342813        8.0698535087
  O         8.2330992315        1.1307141699        1.4699878561
  O         8.2331998717        1.1307225459        4.7698723639
  O         8.2331137269        1.1307219183        8.0698571294
  O         8.2332063542        3.8423472328        1.4699967866
  O         8.2332389689        3.8423664443        4.7698834114
  O         8.2332095362        3.8423572341        8.0698345150
  O         8.2331992121        6.5540181856        1.4699847660
  O         8.2332908889        6.5540269194        4.7698770520
  O         8.2331038045        6.5540164293        8.0698035079
  H         1.7730861351        1.0096238504        2.4087762232
  H         1.7730848120        1.0096529651        5.7086836861
  H         1.7730717008        1.0096307217        9.0086061357
  H         1.7729142382        3.7214935245        2.4087291402
  H         1.7732414524        3.7212684116        5.7086355195
  H         1.7730963009        3.7213029083        9.0086039681
  H         1.7729423644        6.4329498022        2.4087751857
  H         1.7730666022        6.4329613291        5.7086460321
  H         1.7731363956        6.4329674557        9.0085858476
  H         5.1257459151        1.0096561212        2.4087374100
  H         5.1257127955        1.0096943190        5.7086876515
  H         5.1256538983        1.0096205253        9.0086222651
  H         5.1257220071        3.7212926003        2.4087591039
  H         5.1256705826        3.7213420845        5.7086796921
  H         5.1256264055        3.7213226574        9.0086140801
  H         5.1256922323        6.4329517475        2.4087671762
  H         5.1257112101        6.4329421626        5.7086664059
  H         5.1257398176        6.4329511757        9.0086139129
  H         8.4783765192        1.0096778922        2.4087398533
  H         8.4783249884        1.0096572654        5.7086646463
  H         8.4783050903        1.0096602842        9.0086185302
  H         8.4783399810        3.7212955039        2.4087806252
  H         8.4783968850        3.7213171156        5.7086741877
  H         8.4783866548        3.7212587325        9.0085966283
  H         8.4783074340        6.4329478794        2.4087672342
  H         8.4783384475        6.4329193990        5.7086833995
  H         8.4783123184        6.4329916924        9.0085876092
  H         1.8496568585        2.0400457150        1.2547453666
  H         1.8497044129        2.0400469095        4.5546758516
  H         1.8496825679        2.0400472641        7.8546012487
  H         1.8494669853        4.7516126975        1.2548578904
  H         1.8497208802        4.7517826475        4.5546130027
  H         1.8497073324        4.7516964845        7.8545908727
  H         1.8496510214        7.4632550277        1.2547672454
  H         1.8497013045        7.4633565903        4.5546762808
  H         1.8496686665        7.4633734615        7.8546022548
  H         5.2022995223        2.0400931649        1.2547435491
  H         5.2022559615        2.0400560355        4.5546490575
  H         5.2023764243        2.0400633364        7.8546282871
  H         5.2023418227        4.7517485022        1.2547362695
  H         5.2022569452        4.7516571880        4.5546711692
  H         5.2023276242        4.7517141334        7.8546263025
  H         5.2023463833        7.4633820031        1.2547579628
  H         5.2022371406        7.4633532931        4.5547022228
  H         5.2023313749        7.4633699294        7.8545555095
  H         8.5548280752        2.0400815157        1.2547430929
  H         8.5549078964        2.0401148476        4.5546860380
  H         8.5549342269        2.0400436961        7.8545844575
  H         8.5549262422        4.7517274545        1.2546926796
  H         8.5549514610        4.7517525704        4.5546295147
  H         8.5549543749        4.7517353331        7.8545684630
  H         8.5549054343        7.4633939412        1.2547392693
  H         8.5550200761        7.4634167855        4.5546393809
  H         8.5548652077        7.4633907771        7.8546329785
      81
 i =        5, E =      -465.3148182165
  O         1.5466659521        1.1109445035        1.4704741665
  O         1.5466773275        1.1109910082        4.7704543508
  O         1.5465677627        1.1109819649        8.0703602528
  O         1.5456352764        3.8229860707        1.4708400267
  O         1.5469146583        3.8226181753        4.7702951571
  O         1.5466066149        3.8226459268        8.0703486127
  O         1.5461419659        6.5342898833        1.4706231151
  O         1.5465064670        6.5343581631        4.7704274322
  O         1.5467054105        6.5343256034        8.0703546874
  O         4.8994062292        1.1109936468        1.4704631518
  O         4.8991728150        1.1110334292        4.7704292793
  O         4.8994404656        1.1109571515        8.0703362254
  O         4.8995628674        3.8226087943        1.4704334067
  O         4.8989583645        3.8227029379        4.7705123279
  O         4.8992634551        3.8226884043        8.0703614178
  O         4.8994570828        6.5342736763        1.4704773660
  O         4.8991004447        6.5343161394        4.7704871506
  O         4.8993845233        6.5342663964        8.0702937750
  O         8.2517983120        1.1110498289        1.4705253912
  O         8.2520805186        1.1110163924        4.7703908889
  O         8.2518584630        1.1109880359        8.0703438523
  O         8.2520817617        3.8225504092        1.4704355940
  O         8.2522258645        3.8225924387        4.7703479631
  O         8.2521424455        3.8225476663        8.0702602342
  O         8.2520704999        6.5342591624        1.4704398327
  O         8.2523485347        6.5342213801        4.7702982518
  O         8.2518185268        6.5343772985        8.0703992616
  H         1.7599553527        1.0347236791        2.4209844021
  H         1.7599631036        1.0346642579        5.7209217091
  H         1.7599408794        1.0347285749        9.0208290976
  H         1.7596554621        3.7461810366        2.4208998911
  H         1.7601406734        3.7464371918        5.7208545306
  H         1.7599688553        3.7463867259        9.0208187503
  H         1.7597791762        6.4580472855        2.4209789633
  H         1.7599145827        6.4580010371        5.7208526791
  H         1.7600177706        6.4579889375        9.0208141521
  H         5.1126413778        1.0347265235        2.4209670692
  H         5.1125687204        1.0347747919        5.7208902143
  H         5.1125500281        1.0346600175        9.0208705855
  H         5.1126362451        3.7463868616        2.4210005583
  H         5.1125184292        3.7463230881        5.7208791658
  H         5.1124979752        3.7463755695        9.0208424186
  H         5.1125853534        6.4580186670        2.4210157082
  H         5.1125644911        6.4579714668        5.7208965474
  H         5.1126368220        6.4580830338        9.0208273125
  H         8.4652484034        1.0347364140        2.4209530055
  H         8.4652263170        1.0347017511        5.7209097609
  H         8.4651849940        1.0347637850        9.0208312556
  H         8.4652616445        3.7464306096        2.4209990061
  H         8.4653066756        3.7463926617        5.7209215900
  H         8.4652916642        3.7463975142        9.0208306898
  H         8.4652019667        6.4580642138        2.4209931326
  H         8.4652685570        6.4580391348        5.7209365252
  H         8.4651793365        6.4579836473        9.0208239548
  H         1.8185990429        2.0357149837        1.2524335449
  H         1.8186510917        2.0357216328        4.5522422406
  H         1.8186113833        2.0356866144        7.8522392009
  H         1.8182994038        4.7472925085        1.2521434129
  H         1.8187120561        4.7474797627        4.5523756990
  H         1.8186408577        4.7473627893        7.8522283830
  H         1.8185111973        7.4588300112        1.2523720440
  H         1.8186335296        7.4590296007        4.5522840405
  H         1.8186302436        7.4590643039        7.8521819036
  H         5.1712789392        2.0357767073        1.2523764144
  H         5.1711957002        2.0357306479        4.5522995748
  H         5.1713490196        2.0357451247        7.8522463884
  H         5.1713435605        4.7474430075        1.2523954426
  H         5.1711635864        4.7473032738        4.5522191082
  H         5.1712829545        4.7474012658        7.8522411760
  H         5.1713210801        7.4590693778        1.2523814481
  H         5.1711531914        7.4590048435        4.5522646709
  H         5.1713035465        7.4590388494        7.8522499340
  H         8.5237872984        2.0357604852        1.2523427051
  H         8.5238906752        2.0358257785        4.5523029920
  H         8.5238760384        2.0357018835        7.8522288399
  H         8.5239091474        4.7473738416        1.2523986609
  H         8.5239242601        4.7474574795        4.5522997117
  H         8.5239311781        4.7473999435        7.8522615565
  H         8.5238994109        7.4590665584        1.2524065715
  H         8.5240335095        7.4591339242        4.5523573827
  H         8.5238163601        7.4590815025        7.8521792781
      81
 i =        6, E =      -464.7834592014
  O         1.7191442662        0.9431242127        1.4751136230
  O         1.7190658780        0.9432894853        4.7755808751
  O         1.7185333166        0.9431058335        8.0752776227
  O         1.7138794247        3.6570074919        1.4771209690
  O         1.7202928466        3.6545834174        4.7746739619
  O         1.7187818277        3.6548612426        8.0751642002
  O         1.7164628792        6.3666346064        1.4757722710
  O         1.7182620643        6.3667650770        4.7753978442
  O         1.7192375210        6.3666881030        8.0753148088
  O         5.0722133116        0.9431878875        1.4752867641
  O         5.0711646904        0.9434283234        4.7752188237
  O         5.0724018339        0.9430466975        8.0753463016
  O         5.0729095634        3.6546707748        1.4751796238
  O         5.0700871195        3.6552528638        4.7757253890
  O         5.0715368744        3.6550550763        8.0753520380
  O         5.0724670075        6.3663735137        1.4754061923
  O         5.0708064886        6.3667431207        4.7756682383
  O         5.0721413119        6.3662916790        8.0749156370
  O         8.4237245515        0.9435846858        1.4755261775
  O         8.4250885468        0.9433027142        4.7753577393
  O         8.4240838803        0.9431356288        8.0751324533
  O         8.4250085217        3.6543889442        1.4750851272
  O         8.4259020325        3.6545206555        4.7751044086
  O         8.4255391034        3.6543041436        8.0748360014
  O         8.4250118167        6.3663163370        1.4751338836
  O         8.4264261132        6.3660646591        4.7749093975
  O         8.4238612695        6.3669495839        8.0756424981
  H         1.6568392080        1.2240219462        2.5222884118
  H         1.6569325959        1.2237513080        5.8223699053
  H         1.6568190573        1.2241693304        9.1222597243
  H         1.6554467777        3.9339016037        2.5220051986
  H         1.6573054305        3.9360889375        5.8222145804
  H         1.6568728398        3.9357166217        9.1221709754
  H         1.6563278416        6.6474450822        2.5223009486
  H         1.6566505158        6.6471900025        5.8221839776
  H         1.6570102156        6.6471214733        9.1222158348
  H         5.0097671697        1.2240460174        2.5223661458
  H         5.0093482148        1.2240840977        5.8221517913
  H         5.0096866178        1.2238276604        9.1223974468
  H         5.0099019348        3.9357983925        2.5224469692
  H         5.0092173819        3.9352331973        5.8221439987
  H         5.0094324098        3.9356464687        9.1222593880
  H         5.0096810697        6.6473431069        2.5225429491
  H         5.0093065348        6.6471510130        5.8223512174
  H         5.0097814838        6.6476404311        9.1221374554
  H         8.3621769962        1.2240853303        2.5222782115
  H         8.3624105150        1.2239541901        5.8224100930
  H         8.3621616355        1.2242272687        9.1221429372
  H         8.3626206026        3.9359887048        2.5222906729
  H         8.3625555110        3.9356651196        5.8224177343
  H         8.3624893776        3.9359855996        9.1222801786
  H         8.3623507311        6.6475999957        2.5223602462