 # Version information for this restart file 
 # current date 2023-03-12 23:04:09.391
 # current working dir /scratch/usr/hbclanka/others/lenard-au/20221013/600
 # Program compiled at                              Fri Mar 20 16:02:55 CET 2020
 # Program compiled on                                                   bfn1001
 # Program compiled for                                                    local
 # Source code revision number                                       git:e635599
 &GLOBAL
   PREFERRED_DIAG_LIBRARY  ELPA
   PRINT_LEVEL  LOW
   PROJECT_NAME CU_AIMD
   RUN_TYPE  MD
 &END GLOBAL
 &MOTION
   &GEO_OPT
     OPTIMIZER  CG
     MAX_ITER  100
     MAX_DR     3.0000000000000001E-03
     MAX_FORCE     4.4999999999999999E-04
     RMS_DR     1.5000000000000000E-03
     RMS_FORCE     2.9999999999999997E-04
   &END GEO_OPT
   &MD
     ENSEMBLE  LANGEVIN
     STEPS  2000
     TIMESTEP     1.9999999999999996E+00
     STEP_START_VAL  21210
     TIME_START_VAL     4.2420000000018888E+04
     ECONS_START_VAL    -1.1633822153197202E+03
     TEMPERATURE     6.0000000000000000E+02
     &LANGEVIN
       GAMMA     9.9999999999999985E-03
     &END LANGEVIN
     &THERMOSTAT
       TYPE  AD_LANGEVIN
       &AD_LANGEVIN
         TIMECON_NH     9.9999999999999964E+00
         TIMECON_LANGEVIN     9.9999999999999964E+00
       &END AD_LANGEVIN
     &END THERMOSTAT
     &AVERAGES  T
       &RESTART_AVERAGES
         ITIMES_START  1
         AVECPU     2.6392859066699895E+01
         AVEHUGONIOT     0.0000000000000000E+00
         AVETEMP_BARO     0.0000000000000000E+00
         AVEPOT    -1.1633956157363573E+03
         AVEKIN     3.6467278760684735E-01
         AVETEMP     5.9511328737126109E+02
         AVEKIN_QM     0.0000000000000000E+00
         AVETEMP_QM     0.0000000000000000E+00
         AVEVOL     3.8486565621113812E+04
         AVECELL_A     4.6660080675697522E+01
         AVECELL_B     2.7998353237108784E+01
         AVECELL_C     3.4015070391941762E+01
         AVEALPHA     8.9999999999641801E+01
         AVEBETA     8.9999999999581448E+01
         AVEGAMMA     6.0006668418637865E+01
         AVE_ECONS     8.5325207784663064E+02
         AVE_PRESS     0.0000000000000000E+00
         AVE_PXX     0.0000000000000000E+00
       &END RESTART_AVERAGES
     &END AVERAGES
   &END MD
   &PRINT
     &TRAJECTORY  SILENT
       FILENAME MD.TRAJ
       &EACH
         MD  10
       &END EACH
     &END TRAJECTORY
     &VELOCITIES  OFF
     &END VELOCITIES
     &FORCES  OFF
     &END FORCES
     &RESTART  SILENT
       FILENAME MD.REST
       BACKUP_COPIES  3
       &EACH
         MD  10
       &END EACH
     &END RESTART
     &RESTART_HISTORY  SILENT
       &EACH
         MD  100
       &END EACH
     &END RESTART_HISTORY
   &END PRINT
 &END MOTION
 &FORCE_EVAL
   METHOD  QS
   &DFT
     BASIS_SET_FILE_NAME BASIS_MOLOPT
     POTENTIAL_FILE_NAME GTH_POTENTIALS
     MULTIPLICITY  1
     CHARGE  0
     &SCF
       MAX_SCF  200
       EPS_SCF     9.9999999999999995E-07
       CHOLESKY  INVERSE
       SCF_GUESS  ATOMIC
       ADDED_MOS  200
       &DIAGONALIZATION  T
         ALGORITHM  STANDARD
       &END DIAGONALIZATION
       &SMEAR  T
         METHOD  FERMI_DIRAC
         ELECTRONIC_TEMPERATURE     3.0000000000000000E+02
       &END SMEAR
       &MIXING  T
         METHOD  BROYDEN_MIXING
         ALPHA     2.0000000000000001E-01
         BETA     5.0000000000000000E-01
       &END MIXING
       &PRINT
         &RESTART  OFF
         &END RESTART
       &END PRINT
     &END SCF
     &QS
       EPS_DEFAULT     9.9999999999999998E-13
       EPS_PGF_ORB     1.0000000000000001E-05
       EXTRAPOLATION  ASPC
       EXTRAPOLATION_ORDER  3
       METHOD  GPW
     &END QS
     &MGRID
       CUTOFF     5.0000000000000000E+02
     &END MGRID
     &XC
       DENSITY_CUTOFF     1.0000000000000000E-10
       GRADIENT_CUTOFF     1.0000000000000000E-10
       TAU_CUTOFF     1.0000000000000000E-10
       &XC_GRID
         XC_SMOOTH_RHO  NN10
         XC_DERIV  PW
       &END XC_GRID
       &XC_FUNCTIONAL  NO_SHORTCUT
         &PBE  T
           PARAMETRIZATION  ORIG
         &END PBE
       &END XC_FUNCTIONAL
       &VDW_POTENTIAL
         POTENTIAL_TYPE  PAIR_POTENTIAL
         &PAIR_POTENTIAL
           R_CUTOFF     1.0583544200000000E+01
           TYPE  DFTD3(BJ)
           PARAMETER_FILE_NAME ./dftd3.dat
           REFERENCE_FUNCTIONAL PBE
         &END PAIR_POTENTIAL
       &END VDW_POTENTIAL
     &END XC
     &POISSON
       PERIODIC  XYZ
     &END POISSON
   &END DFT
   &SUBSYS
     &RNG_INIT
Wiener process for particle 1            1 F T F  -1.1749301870365192E+00         588777479.0        1540921846.0        1643080116.0        3967182379.0        4071089683.0        3838881284.0             12345.0             12345.0             12345.0             12345.0             12345.0             12345.0             12345.0             12345.0             12345.0             12345.0             12345.0             12345.0
Wiener process for particle 2            1 F T F   7.7749081681091703E-01        3214121577.0        1927419688.0        3634752065.0        2321220553.0        3005491745.0        3247287781.0        3692455944.0        1366884236.0        2968912127.0         335948734.0        4161675175.0         475798818.0        3692455944.0        1366884236.0        2968912127.0         335948734.0        4161675175.0         475798818.0
Wiener process for particle 3            1 F T F  -2.5173534337464726E-01         173378405.0         727848547.0        3996397914.0        2226721270.0         259676541.0        2661012551.0        1015873554.0        1310354410.0        2249465273.0         994084013.0        2912484720.0        3876682925.0        1015873554.0        1310354410.0        2249465273.0         994084013.0        2912484720.0        3876682925.0
Wiener process for particle 4            1 F T F   2.1925751493732510E-02        3112359604.0        1732710960.0         885202213.0        3920904852.0        3821136753.0        2930606401.0        2338701263.0        1119171942.0        2570676563.0         317077452.0        3194180850.0         618832124.0        2338701263.0        1119171942.0        2570676563.0         317077452.0        3194180850.0         618832124.0
Wiener process for particle 5            1 F T F   1.2609074959967808E+00        2082019143.0        4097287137.0        1690056291.0         226556926.0         519913747.0        3354841566.0        1597262096.0        3906379055.0        3312112953.0        1016013135.0        4099474108.0         275305423.0        1597262096.0        3906379055.0        3312112953.0        1016013135.0        4099474108.0         275305423.0
Wiener process for particle 6            1 F T F   1.3635003647252271E+00         384546923.0        1219546461.0         752591467.0        3504826090.0        2093008798.0        4288946043.0          97147054.0        3131372450.0         829345164.0        3691032523.0        3006063034.0        4259826321.0          97147054.0        3131372450.0         829345164.0        3691032523.0        3006063034.0        4259826321.0
Wiener process for particle 7            1 F T F  -2.0560473685302130E-01        3195286121.0        2990882946.0        1507861232.0        3853429597.0        1905388703.0        1667430960.0         796079799.0        2105258207.0         955365076.0        2923159030.0        4116632677.0        3067683584.0         796079799.0        2105258207.0         955365076.0        2923159030.0        4116632677.0        3067683584.0
Wiener process for particle 8            1 F T F   1.7985947444147525E+00        1882624105.0         798862257.0        2265046908.0        4220317542.0        2491520534.0        2743699612.0        3281794178.0        2616230133.0        1457051261.0        2762791137.0        2480527362.0        2282316169.0        3281794178.0        2616230133.0        1457051261.0        2762791137.0        2480527362.0        2282316169.0
Wiener process for particle 9            1 F T F  -8.9297712364616266E-01         513541333.0        2759323679.0         204860293.0        3883693890.0        2298616343.0        3233077756.0        3777646647.0        1837464056.0        4204654757.0         664239048.0        4190510072.0        2959195122.0        3777646647.0        1837464056.0        4204654757.0         664239048.0        4190510072.0        2959195122.0
Wiener process for particle 10           1 F T F   1.6628264739753198E+00        3340519762.0         548685405.0        3145109522.0         446469978.0        1675147486.0         328793944.0        4215590817.0        3862461878.0        1087200967.0        1544910132.0         936383720.0        1611370123.0        4215590817.0        3862461878.0        1087200967.0        1544910132.0         936383720.0        1611370123.0
Wiener process for particle 11           1 F T F   1.0871360281112250E+00        2765353528.0        3032703989.0        3429403116.0        3304628983.0         173824913.0        3908812774.0        1683636369.0         362165168.0         814316280.0         869382050.0         980203903.0        2062101717.0        1683636369.0         362165168.0         814316280.0         869382050.0         980203903.0        2062101717.0
Wiener process for particle 12           1 F T F   4.8263804000274174E-01        2718894536.0        2699515677.0        1972163300.0        1947346962.0        3407402123.0        3393661672.0         272317999.0         166758548.0         310112982.0         201045826.0        1680231254.0         118290799.0         272317999.0         166758548.0         310112982.0         201045826.0        1680231254.0         118290799.0
Wiener process for particle 13           1 F T F   3.2329632070819803E-01        2034446461.0        3958787173.0        2922999297.0        4177016873.0          64299944.0         556861190.0        2245755202.0        1652682525.0        2865544364.0         721509566.0         209733568.0         592362218.0        2245755202.0        1652682525.0        2865544364.0         721509566.0         209733568.0         592362218.0
Wiener process for particle 14           1 F T F  -1.2725675979884190E+00        1709753500.0        3367481036.0        2022830387.0        3353116612.0        2628746593.0        3728496973.0        3003961408.0        3529909391.0          14538032.0        3603919910.0         566682685.0        1235016484.0        3003961408.0        3529909391.0          14538032.0        3603919910.0         566682685.0        1235016484.0
Wiener process for particle 15           1 F T F   8.1287060034417502E-01        1979550343.0        1889225484.0        2576084970.0         463515768.0        2216217498.0        1585895993.0         596094074.0        2279636413.0        3050913596.0        1739649456.0        2368706608.0        3058697049.0         596094074.0        2279636413.0        3050913596.0        1739649456.0        2368706608.0        3058697049.0
Wiener process for particle 16           1 F T F  -9.7565771972640880E-01        1431357303.0        2130262270.0        1827741900.0        2387475249.0         990160402.0        4252667474.0        1437096527.0        2547142266.0        2541498983.0        2640839690.0        2160978219.0        2618657830.0        1437096527.0        2547142266.0        2541498983.0        2640839690.0        2160978219.0        2618657830.0
Wiener process for particle 17           1 F T F   6.0826370554253240E-01          54186074.0        1412703704.0        1478904708.0        1376592201.0        2058106667.0        4223564622.0        3224044943.0        1227141655.0        2220611050.0        1504589054.0        2829780440.0         108189859.0        3224044943.0        1227141655.0        2220611050.0        1504589054.0        2829780440.0         108189859.0
Wiener process for particle 18           1 F T F   1.6832199746240555E+00        3402920247.0        1323837494.0         155243372.0        3212260802.0        2672800932.0         665452126.0         927434978.0        1593504038.0        2143021818.0        1749489845.0        1330187821.0        2371554242.0         927434978.0        1593504038.0        2143021818.0        1749489845.0        1330187821.0        2371554242.0
Wiener process for particle 19           1 F T F  -7.1144262936673364E-01        2277856076.0        1609818223.0         314443044.0        3161626864.0        1008424579.0        3482116278.0        3446225690.0         835741554.0        2195834023.0        1297741021.0        3357053382.0         383824268.0        3446225690.0         835741554.0        2195834023.0        1297741021.0        3357053382.0         383824268.0
Wiener process for particle 20           1 F T F   1.8407963998501065E+00         643165053.0         202158105.0        2574687959.0        2182348938.0        1474272745.0        3511931471.0        3984477137.0        1267973573.0        3770063761.0         216527865.0        1568537936.0        1200352663.0        3984477137.0        1267973573.0        3770063761.0         216527865.0        1568537936.0        1200352663.0
Wiener process for particle 21           1 F T F   1.2409787038125686E+00         809408244.0        3965759822.0        4202000091.0        1303461807.0        1283927616.0        3461838342.0        2503334853.0        3179736892.0        2080184241.0        2881517721.0        3611607237.0        2639045213.0        2503334853.0        3179736892.0        2080184241.0        2881517721.0        3611607237.0        2639045213.0
Wiener process for particle 22           1 F T F   2.1569457415283716E-01        3550165808.0        1117128960.0        2718435221.0         169823907.0        2444571076.0        2766157725.0        2784301963.0        3004110709.0        4065265451.0        2351994899.0        1824839263.0        1473060447.0        2784301963.0        3004110709.0        4065265451.0        2351994899.0        1824839263.0        1473060447.0
Wiener process for particle 23           1 F T F  -9.6095756755653960E-01        1082990366.0        2749648783.0        1878558031.0        2269889396.0        2061188760.0        3642772940.0        3645411182.0        1391027122.0        3995023402.0         536114258.0        1376034799.0        2391282907.0        3645411182.0        1391027122.0        3995023402.0         536114258.0        1376034799.0        2391282907.0
Wiener process for particle 24           1 F T F   3.9683884913794237E-01         524436773.0         108362036.0        2409769903.0        1376340387.0         248751446.0        2656678763.0        4205039797.0        2998067142.0        2737381050.0        2060484144.0          21123025.0         900610517.0        4205039797.0        2998067142.0        2737381050.0        2060484144.0          21123025.0         900610517.0
Wiener process for particle 25           1 F T F   3.0928740215432748E-01        3374759374.0        3334083140.0        3025385226.0         693696939.0         179726455.0        2008531455.0        1708138263.0        1103344630.0        3131738563.0         354874525.0        1462105562.0        2799820805.0        1708138263.0        1103344630.0        3131738563.0         354874525.0        1462105562.0        2799820805.0
Wiener process for particle 26           1 F T F   7.7536926134174611E-01        3591734428.0        2597780672.0        2476582119.0         440594572.0          82401975.0         614567928.0        1762624356.0        3338520614.0        1869672149.0        2420033342.0        3823777008.0        4112813433.0        1762624356.0        3338520614.0        1869672149.0        2420033342.0        3823777008.0        4112813433.0
Wiener process for particle 27           1 F T F  -7.5353122807319650E-01          96336236.0          32020318.0         497109502.0        2424190534.0        3388114454.0        3484814102.0        1406960847.0        2689758640.0        2086764669.0        1479781266.0        4277003072.0        4173905453.0        1406960847.0        2689758640.0        2086764669.0        1479781266.0        4277003072.0        4173905453.0
Wiener process for particle 28           1 F T F  -4.0777581076926098E-02        1493582874.0        2317496093.0        3665233433.0        2577144204.0         211437394.0         566780170.0        3217706054.0        3907922111.0        3316415646.0         934936431.0        1155310743.0        1383590847.0        3217706054.0        3907922111.0        3316415646.0         934936431.0        1155310743.0        1383590847.0
Wiener process for particle 29           1 F T F   4.5892262749696877E-01        2334801881.0        2269263529.0        3693273727.0        2764359396.0        3627570393.0        2457081577.0        2996242832.0        2506376012.0        1182520337.0         938957435.0        3286002927.0        1946707306.0        2996242832.0        2506376012.0        1182520337.0         938957435.0        3286002927.0        1946707306.0
Wiener process for particle 30           1 F T F   1.1275364181590217E+00         946393921.0         150642697.0        4134444460.0        2945388794.0        2110030058.0         171124582.0        3757057907.0        1334546224.0        1509001838.0         991499802.0        1502864996.0         921145139.0        3757057907.0        1334546224.0        1509001838.0         991499802.0        1502864996.0         921145139.0
Wiener process for particle 31           1 F T F  -6.7829006041466955E-01        1256656606.0        3129130350.0        2885553779.0        2568777380.0        2865514179.0        1260658779.0        3728532268.0         988545039.0        1631700325.0        1143954198.0        2209269908.0        1591407377.0        3728532268.0         988545039.0        1631700325.0        1143954198.0        2209269908.0        1591407377.0
Wiener process for particle 32           1 F T F  -5.9774456418239408E-01        2447999646.0        1525895183.0        3167781457.0        3211167900.0         316277825.0        3740868542.0        3294123071.0        1464634864.0        3721431761.0        2693241183.0        1754954480.0        3900039887.0        3294123071.0        1464634864.0        3721431761.0        2693241183.0        1754954480.0        3900039887.0
Wiener process for particle 33           1 F T F   1.3651099041363726E+00         620475108.0        3386107249.0        2219069959.0        2507289984.0        4198924812.0        3924797052.0         131824893.0        3188611738.0        1376082626.0        2419937722.0        2563475034.0        1251594162.0         131824893.0        3188611738.0        1376082626.0        2419937722.0        2563475034.0        1251594162.0
Wiener process for particle 34           1 F T F   8.8176825898765365E-01        4081003219.0          39835931.0        3954330732.0        1423180091.0         710456620.0        2091977692.0        3770164700.0        4029076745.0        1104720217.0        3496143152.0         735265587.0        3273706940.0        3770164700.0        4029076745.0        1104720217.0        3496143152.0         735265587.0        3273706940.0
Wiener process for particle 35           1 F T F  -8.5156605958616782E-01        3090344381.0         594095710.0        1406795232.0         764468195.0         199169421.0        1658364889.0        2131062045.0        2455732983.0         789218840.0        1151705419.0         286383816.0         924846932.0        2131062045.0        2455732983.0         789218840.0        1151705419.0         286383816.0         924846932.0
Wiener process for particle 36           1 F T F  -1.2705190188567079E+00        2421212173.0         223011496.0        2493580478.0        1598228064.0        3772278094.0           1181769.0        2053528341.0        4170407123.0        3515474899.0          98091789.0        1000335891.0        3854257602.0        2053528341.0        4170407123.0        3515474899.0          98091789.0        1000335891.0        3854257602.0
Wiener process for particle 37           1 F T F   1.8513041775225025E-01         196558815.0        2753879719.0         474398702.0        2319824115.0         375868104.0        4217581539.0        2469807084.0           9172128.0        3362394154.0        4021928081.0        2651348937.0        2296225074.0        2469807084.0           9172128.0        3362394154.0        4021928081.0        2651348937.0        2296225074.0
Wiener process for particle 38           1 F T F   1.0237251500449453E-01         902876245.0         130808228.0        1037252118.0         151668431.0        2259532356.0        3242477776.0         794136241.0        1326962976.0        1423309168.0         588827532.0        1370684418.0        1646244893.0         794136241.0        1326962976.0        1423309168.0         588827532.0        1370684418.0        1646244893.0
Wiener process for particle 39           1 F T F   1.2349048345050753E+00         794659615.0         846685019.0        1505556565.0        1443216183.0        2105655652.0        3437804937.0        2866999578.0        1918106148.0        3899143652.0        2905238681.0        3298551408.0         326591245.0        2866999578.0        1918106148.0        3899143652.0        2905238681.0        3298551408.0         326591245.0
Wiener process for particle 40           1 F T F   2.2378185339990591E+00        1723773864.0        1755482551.0        3784786993.0        4166681393.0        3606323461.0         775956677.0        3040096556.0        1206876890.0         780501254.0         597456198.0        1004013014.0        3962406934.0        3040096556.0        1206876890.0         780501254.0         597456198.0        1004013014.0        3962406934.0
Wiener process for particle 41           1 F T F   1.2484495673764620E-02        2947958491.0        1367075264.0        1754489814.0        3852323323.0        3467615115.0        2765868085.0        3970659565.0        2743575038.0        4070166570.0         141329301.0        2711190398.0         148640829.0        3970659565.0        2743575038.0        4070166570.0         141329301.0        2711190398.0         148640829.0
Wiener process for particle 42           1 F T F  -8.7678894824460762E-01        2115253075.0         371377810.0         351202415.0        3005481656.0        3734307682.0        1658884653.0         216582539.0        3263278363.0        1880572884.0        3722908253.0         287018188.0         285207334.0         216582539.0        3263278363.0        1880572884.0        3722908253.0         287018188.0         285207334.0
Wiener process for particle 43           1 F T F   7.1444383074080064E-01         306767935.0        3252787179.0        3359559730.0        1113321633.0        3909742518.0        2713301414.0        4258459985.0        1892494520.0        2510345890.0        2935846613.0        1134826799.0        1965241718.0        4258459985.0        1892494520.0        2510345890.0        2935846613.0        1134826799.0        1965241718.0
Wiener process for particle 44           1 F T F  -1.2883432841788613E+00        2374283228.0        3019501919.0        1344504412.0        2361560699.0        1399409777.0        3387768457.0         578737695.0         119907309.0        1233642926.0        4159114509.0        3946997940.0          72299514.0         578737695.0         119907309.0        1233642926.0        4159114509.0        3946997940.0          72299514.0
Wiener process for particle 45           1 F T F   2.5678893914252454E-01        1118319787.0        3464517354.0        3797877270.0        3626142954.0        3499648197.0        4046868445.0        2479155365.0        4125104013.0         170057196.0        2546874696.0        2945959743.0        4079518977.0        2479155365.0        4125104013.0         170057196.0        2546874696.0        2945959743.0        4079518977.0
Wiener process for particle 46           1 F T F  -8.8076956157249764E-01         443067031.0        1036569808.0        2231295383.0        3385005969.0        3876559177.0         885624003.0        4016980097.0        3481660449.0         995889916.0        3015184182.0        4180728415.0        3263605701.0        4016980097.0        3481660449.0         995889916.0        3015184182.0        4180728415.0        3263605701.0
Wiener process for particle 47           1 F T F  -1.7716556980097955E+00        3808910065.0         353554236.0         935186252.0         834651276.0        3471297074.0        2850578351.0        1769249367.0        2243378503.0        3654912402.0        3067634031.0        2622402920.0         552187620.0        1769249367.0        2243378503.0        3654912402.0        3067634031.0        2622402920.0         552187620.0
Wiener process for particle 48           1 F T F  -5.5377098925594404E-01        2817884725.0         206936844.0         161345366.0        3330890084.0        4088770745.0        2851562960.0        2210461626.0         810156371.0        1171187114.0        2260289774.0        3470472214.0        2062524891.0        2210461626.0         810156371.0        1171187114.0        2260289774.0        3470472214.0        2062524891.0
Wiener process for particle 49           1 F T F  -3.8424212637727745E-01          28726881.0         125752219.0        4261849053.0        3311232669.0        3205068819.0        3808150438.0        2967787448.0         410732989.0        1241813518.0        1154065742.0        1680293965.0        1718768485.0        2967787448.0         410732989.0        1241813518.0        1154065742.0        1680293965.0        1718768485.0
Wiener process for particle 50           1 F T F  -1.3349136384575908E+00        1132927168.0        4163484021.0        3980808842.0         194481803.0        3148840190.0        3139416743.0        2667041740.0        4238911572.0        3694573673.0        3166543307.0        2525238380.0        2009058941.0        2667041740.0        4238911572.0        3694573673.0        3166543307.0        2525238380.0        2009058941.0
Wiener process for particle 51           1 F T F   6.0355016200193701E-01        3086061299.0        3682954740.0         432316368.0        3170271398.0        3871987430.0        3162966984.0        1609088888.0         302146514.0        1337822968.0          32443790.0         663198624.0         108142314.0        1609088888.0         302146514.0        1337822968.0          32443790.0         663198624.0         108142314.0
Wiener process for particle 52           1 F T F  -4.8545571711913110E-01         217119685.0        4191046699.0        3772870035.0        4043530598.0        2641145133.0        3075189591.0        3500933258.0        1350819015.0        2732370233.0         555530171.0        4066946918.0         915552600.0        3500933258.0        1350819015.0        2732370233.0         555530171.0        4066946918.0         915552600.0
Wiener process for particle 53           1 F T F  -1.9938291320708179E-01        3290937103.0        3415987509.0        2224813114.0        3150080345.0        1842003275.0         548018293.0         193582114.0        3536931462.0        1061163334.0        2771375939.0        1968090767.0        2893840988.0         193582114.0        3536931462.0        1061163334.0        2771375939.0        1968090767.0        2893840988.0
Wiener process for particle 54           1 F T F   1.1364999707250116E+00        4114061531.0        4165586294.0        1578061881.0        1743172146.0         711687226.0          27486406.0        2904978947.0        1723463734.0        2986735812.0        3454199587.0         735074847.0        2431656074.0        2904978947.0        1723463734.0        2986735812.0        3454199587.0         735074847.0        2431656074.0
Wiener process for particle 55           1 F T F   1.1129811416603663E-01        1378158688.0        3336607672.0        3905729786.0        1977156755.0        4154257008.0        2573039611.0        2966808121.0        3354520627.0         346101755.0        1263362009.0        4029540813.0        3080467228.0        2966808121.0        3354520627.0         346101755.0        1263362009.0        4029540813.0        3080467228.0
Wiener process for particle 56           1 F T F  -1.5822540080281164E-01         145932592.0        3452345633.0        1409681308.0        2484187172.0        2805152026.0        1023030245.0         569973296.0        3971015859.0        3727859896.0        2211808163.0        3074531219.0        1990606083.0         569973296.0        3971015859.0        3727859896.0        2211808163.0        3074531219.0        1990606083.0
Wiener process for particle 57           1 F T F  -8.1869577183215991E-01        1246468302.0        2628910739.0        1829164214.0        3472739686.0        1799557601.0         459353120.0        3683590777.0        3859373512.0         297644217.0        3451581853.0         333484586.0        2062123863.0        3683590777.0        3859373512.0         297644217.0        3451581853.0         333484586.0        2062123863.0
Wiener process for particle 58           1 F T F   2.5188254858921111E+00        1862417845.0        2593695445.0         288741894.0         660262687.0          27121345.0         111313990.0         645531386.0        2789451056.0         574522196.0         570030963.0        3542619707.0         497013447.0         645531386.0        2789451056.0         574522196.0         570030963.0        3542619707.0         497013447.0