     Step               Time                Kin                Temp                Pot               Cons               UsedTime
         0            0.000000         0.367667261       600.000000000     -1163.749882581     -1163.382215320         0.000000000
         1            2.000000         0.325969470       531.952944538     -1163.698838733     -1163.372869262        65.910276184
         2            4.000000         0.226843177       370.187722692     -1163.592101657     -1163.365258480        21.558763808
         3            6.000000         0.159922737       260.979565015     -1163.519695965     -1163.359773229        21.548548687
         4            8.000000         0.159511265       260.308080309     -1163.521375891     -1163.361864626        17.723660159
         5           10.000000         0.209834221       342.430632532     -1163.559668137     -1163.349833916        22.722649458
         6           12.000000         0.232664353       379.687360662     -1163.570406472     -1163.337742118        24.775000185
         7           14.000000         0.209489534       341.868134044     -1163.534282662     -1163.324793128        20.839646262
         8           16.000000         0.175275708       286.034237814     -1163.491399855     -1163.316124147        25.675366821
         9           18.000000         0.179965554       293.687645491     -1163.484735731     -1163.304770178        23.912483065
        10           20.000000         0.209169068       341.345162438     -1163.512942021     -1163.303772952        20.013320875
        11           22.000000         0.240676828       392.763000587     -1163.543717660     -1163.303040832        20.938823639
        12           24.000000         0.260606103       425.285789602     -1163.550546688     -1163.289940585        21.868870708
        13           26.000000         0.249834824       407.708028212     -1163.529579845     -1163.279745021        18.035077645
        14           28.000000         0.236107743       385.306664122     -1163.501313628     -1163.265205885        21.715209706
        15           30.000000         0.234243435       382.264279394     -1163.489622496     -1163.255379062        22.246320728
        16           32.000000         0.247185348       403.384321103     -1163.496142722     -1163.248957374        21.457285789
        17           34.000000         0.246765933       402.699874410     -1163.501948753     -1163.255182820        21.469598457
        18           36.000000         0.246428804       402.149710167     -1163.497619720     -1163.251190916        19.301372283
        19           38.000000         0.236269194       385.570137374     -1163.488395181     -1163.252125987        17.282566866
        20           40.000000         0.236941008       386.666478093     -1163.480176594     -1163.243235586        24.465290506
        21           42.000000         0.238599002       389.372174147     -1163.476876905     -1163.238277904        27.345674494
        22           44.000000         0.237850088       388.150014320     -1163.482394879     -1163.244544791        27.578171286
        23           46.000000         0.256783335       419.047375518     -1163.498891180     -1163.242107845        25.890413466
        24           48.000000         0.272583197       444.831332920     -1163.514282810     -1163.241699614        25.328013337
        25           50.000000         0.268020276       437.385056395     -1163.513754589     -1163.245734313        27.680417249
        26           52.000000         0.252164031       411.509086001     -1163.497346565     -1163.245182534        26.354758539
        27           54.000000         0.241661332       394.369623211     -1163.475381652     -1163.233720320        24.933303305
        28           56.000000         0.229616919       374.714220835     -1163.459318781     -1163.229701862        20.947792752
        29           58.000000         0.237638545       387.804795649     -1163.456387568     -1163.218749023        26.516238903
        30           60.000000         0.251756467       410.843978059     -1163.465087898     -1163.213331431        27.474530955
        31           62.000000         0.280883474       458.376640877     -1163.478975199     -1163.198091726        26.387914170
        32           64.000000         0.287276122       468.808870455     -1163.487414959     -1163.200138837        21.774766474
        33           66.000000         0.291459875       475.636378704     -1163.490861879     -1163.199402004        21.779271946
        34           68.000000         0.299561757       488.857923752     -1163.493836564     -1163.194274808        21.697351666
        35           70.000000         0.307423808       501.688085728     -1163.494296703     -1163.186872895        21.072562704
        36           72.000000         0.297459364       485.427007230     -1163.481929483     -1163.184470120        21.402020713
        37           74.000000         0.290140542       473.483345541     -1163.457487018     -1163.167346477        25.290759826
        38           76.000000         0.269943586       440.523725709     -1163.429227089     -1163.159283502        26.287971159
        39           78.000000         0.257763497       420.646912106     -1163.415562990     -1163.157799493        26.239426757
        40           80.000000         0.278786077       454.953877436     -1163.429986675     -1163.151200598        25.359368759
        41           82.000000         0.314028022       512.465570977     -1163.461102209     -1163.147074187        21.871431950
        42           84.000000         0.348097313       568.063599968     -1163.482807015     -1163.134709702        21.789081401
        43           86.000000         0.335991243       548.307578431     -1163.483048087     -1163.147056845        25.685217189
        44           88.000000         0.330085935       538.670646262     -1163.469226106     -1163.139140170        27.681503792
        45           90.000000         0.317387015       517.947146674     -1163.450410138     -1163.133023123        27.656807681
        46           92.000000         0.300598329       490.549516075     -1163.436658011     -1163.136059682        27.486829487
        47           94.000000         0.293874899       479.577481936     -1163.426949105     -1163.133074206        25.785469562
        48           96.000000         0.288248443       470.395610504     -1163.412108003     -1163.123859560        22.824347756
        49           98.000000         0.272701637       445.024616857     -1163.391931913     -1163.119230276        22.307123601
        50          100.000000         0.269905955       440.462315285     -1163.385331281     -1163.115425325        25.166213166
        51          102.000000         0.291800021       476.191466384     -1163.403158738     -1163.111358717        25.098279268
        52          104.000000         0.326703591       533.150962631     -1163.436632366     -1163.109928776        24.388488953
        53          106.000000         0.334062638       545.160267963     -1163.457195747     -1163.123133109        20.983987182
        54          108.000000         0.335441939       547.411163307     -1163.449779662     -1163.114337723        23.327189392
        55          110.000000         0.308278623       503.083067902     -1163.425000231     -1163.116721608        23.905812544
        56          112.000000         0.303669565       495.561498882     -1163.412491368     -1163.108821803        22.319253507
        57          114.000000         0.320610636       523.207808022     -1163.420942258     -1163.100331622        21.357823568
        58          116.000000         0.327620766       534.647711048     -1163.428363482     -1163.100742715        22.377259955
        59          118.000000         0.325962290       531.941226857     -1163.426939620     -1163.100977330        20.983616270
        60          120.000000         0.314253640       512.833760308     -1163.422127680     -1163.107874039        28.111289999
        61          122.000000         0.331156500       540.417710956     -1163.424425904     -1163.093269405        24.871857709
        62          124.000000         0.338468400       552.350075857     -1163.427813047     -1163.089344648        26.171651281
        63          126.000000         0.336909420       549.805961526     -1163.425004791     -1163.088095370        27.142221595
        64          128.000000         0.332051269       541.877894615     -1163.417966902     -1163.085915633        26.666252175
        65          130.000000         0.330479866       539.313505657     -1163.410037476     -1163.079557610        26.901804522
        66          132.000000         0.328861829       536.673014398     -1163.405624605     -1163.076762776        29.846293901
        67          134.000000         0.322380615       526.096253906     -1163.399088119     -1163.076707504        28.685337874
        68          136.000000         0.322113806       525.660845751     -1163.391380509     -1163.069266703        21.310155799
        69          138.000000         0.322946051       527.018994501     -1163.390567238     -1163.067621187        21.234595868
        70          140.000000         0.328491797       536.069155918     -1163.400473022     -1163.071981224        24.984317936
        71          142.000000         0.337000016       549.953805112     -1163.414746352     -1163.077746336        28.970143420
        72          144.000000         0.344922637       562.882812890     -1163.417824749     -1163.072902111        21.753285169
        73          146.000000         0.328003472       535.272252642     -1163.403879207     -1163.075875735        21.831467760
        74          148.000000         0.314150288       512.665099260     -1163.384829200     -1163.070678912        27.883929878
        75          150.000000         0.309998922       505.890441484     -1163.372412081     -1163.062413159        24.696538478
        76          152.000000         0.313005726       510.797276837     -1163.374016056     -1163.061010329        21.702969100
        77          154.000000         0.327870812       535.055763019     -1163.392586786     -1163.064715974        21.261906006
        78          156.000000         0.352564715       575.353998080     -1163.419021012     -1163.066456298        22.213683479
        79          158.000000         0.341531059       557.348061511     -1163.426666417     -1163.085135358        27.698660607
        80          160.000000         0.321657570       524.916309107     -1163.407598674     -1163.085941104        27.633765529
        81          162.000000         0.301640497       492.250242195     -1163.387726925     -1163.086086427        27.467940127
        82          164.000000         0.297948992       486.226035858     -1163.384763478     -1163.086814486        23.788268471
        83          166.000000         0.306809613       500.685775027     -1163.387270555     -1163.080460942        24.843333408
        84          168.000000         0.316269157       516.122903090     -1163.381916115     -1163.065646958        27.651056256
        85          170.000000         0.306336331       499.913421646     -1163.376188883     -1163.069852552        27.386989400
        86          172.000000         0.314399700       513.072117360     -1163.382784419     -1163.068384718        24.662937660
        87          174.000000         0.330399828       539.182890631     -1163.395237931     -1163.064838103        27.440552563
        88          176.000000         0.360343737       588.048664527     -1163.406977512     -1163.046633775        26.404431397
        89          178.000000         0.362282731       591.212929948     -1163.416080717     -1163.053797985        26.283350676
        90          180.000000         0.357827351       583.942147936     -1163.421645650     -1163.063818299        21.612835806
        91          182.000000         0.358610429       585.220062489     -1163.422306540     -1163.063696110        20.812123579
        92          184.000000         0.352943834       575.972686686     -1163.421244101     -1163.068300267        25.251857665
        93          186.000000         0.356819683       582.297724887     -1163.420387115     -1163.063567432        27.955436307
        94          188.000000         0.347503950       567.095284110     -1163.411271425     -1163.063767475        26.755621236
        95          190.000000         0.338852341       552.976633554     -1163.394510094     -1163.055657753        23.951135314
        96          192.000000         0.328273992       535.713717018     -1163.385352761     -1163.057078769        24.159359215
        97          194.000000         0.335438676       547.405838291     -1163.393613529     -1163.058174854        21.137148011
        98          196.000000         0.348961807       569.474375254     -1163.411002258     -1163.062040452        20.632519350
        99          198.000000         0.360396605       588.134940039     -1163.421764650     -1163.061368046        28.453126866
       100          200.000000         0.353933911       577.588403949     -1163.419492668     -1163.065558757        29.136747620
       101          202.000000         0.336835634       549.685549265     -1163.407361288     -1163.070525653        28.705315077
       102          204.000000         0.324727520       529.926193014     -1163.393243522     -1163.068516002        30.018553213
       103          206.000000         0.311253760       507.938224389     -1163.388131115     -1163.076877355        22.899579285
       104          208.000000         0.336229894       548.697035264     -1163.395498166     -1163.059268273        26.152162710
       105          210.000000         0.343576287       560.685690321     -1163.401609536     -1163.058033249        28.800843202
       106          212.000000         0.346228992       565.014666849     -1163.400581031     -1163.054352039        29.043824431
       107          214.000000         0.348466848       568.666647654     -1163.400274492     -1163.051807644        22.589233701
       108          216.000000         0.366248524       597.684747756     -1163.407010957     -1163.040762434        25.612434044
       109          218.000000         0.378078032       616.989443845     -1163.409534788     -1163.031456756        26.473744544
       110          220.000000         0.362198019       591.074686940     -1163.398716889     -1163.036518870        23.941832319
       111          222.000000         0.349500450       570.353392914     -1163.388310477     -1163.038810027        23.726149675
       112          224.000000         0.354119440       577.891170621     -1163.389004917     -1163.034885477        21.553354129
       113          226.000000         0.369953961       603.731688300     -1163.392802042     -1163.022848082        23.688373619
       114          228.000000         0.340890130       556.302122054     -1163.382955462     -1163.042065332        23.719380063
       115          230.000000         0.328931390       536.786531655     -1163.364762258     -1163.035830868        24.072798145
       116          232.000000         0.315199780       514.377775885     -1163.352999723     -1163.037799943        22.726659512
       117          234.000000         0.321845891       525.223633361     -1163.359445575     -1163.037599683        29.901063990
       118          236.000000         0.328795903       536.565429088     -1163.373007733     -1163.044211830        30.576889999
       119          238.000000         0.338361489       552.175607898     -1163.378625424     -1163.040263935        27.071726192
       120          240.000000         0.342101124       558.278355793     -1163.382422209     -1163.040321086        23.774644565
       121          242.000000         0.352029648       574.480817975     -1163.395383678     -1163.043354029        29.706144809
       122          244.000000         0.388866813       634.595767811     -1163.419889411     -1163.031022598        29.290504789
       123          246.000000         0.403262370       658.088024761     -1163.441807347     -1163.038544977        27.163749973
       124          248.000000         0.406547381       663.448868657     -1163.442386690     -1163.035839309        25.867347216
       125          250.000000         0.376119065       613.792586407     -1163.420203956     -1163.044084890        28.716465331
       126          252.000000         0.337487042       550.748588924     -1163.391466271     -1163.053979229        27.583541028
       127          254.000000         0.321506772       524.670221270     -1163.378109756     -1163.056602984        21.843918543
       128          256.000000         0.340357861       555.433507316     -1163.389052970     -1163.048695109        20.040642308
       129          258.000000         0.352792747       575.726126383     -1163.407744526     -1163.054951779        25.987613274
       130          260.000000         0.346893049       566.098348240     -1163.412689848     -1163.065796799        24.066572112
       131          262.000000         0.348315072       568.418962060     -1163.399265371     -1163.050950299        23.968882445
       132          264.000000         0.335410670       547.360135828     -1163.382604254     -1163.047193584        22.131347654
       133          266.000000         0.337121469       550.152006101     -1163.385122995     -1163.048001526        22.043817084
       134          268.000000         0.366605654       598.267552782     -1163.408216181     -1163.041610527        24.732632420
       135          270.000000         0.393568382       642.268305821     -1163.430681645     -1163.037113264        23.938836721
       136          272.000000         0.401926703       655.908335823     -1163.434430064     -1163.032503361        26.190463936
       137          274.000000         0.375726079       613.151267073     -1163.414822555     -1163.039096476        27.998727112
       138          276.000000         0.357795911       583.890840815     -1163.388464261     -1163.030668350        28.433918357
       139          278.000000         0.340715154       556.016577455     -1163.380447939     -1163.039732785        24.647329598
       140          280.000000         0.356394464       581.603805559     -1163.398532403     -1163.042137939        27.077497798
       141          282.000000         0.374972728       611.921867160     -1163.418994184     -1163.044021456        28.110207351
       142          284.000000         0.368708202       601.698721133     -1163.416340727     -1163.047632525        30.135404068
       143          286.000000         0.348565374       568.827433436     -1163.395186067     -1163.046620692        26.446647969
       144          288.000000         0.331684030       541.278593652     -1163.376728048     -1163.045044018        26.666815891
       145          290.000000         0.325352066       530.945395652     -1163.371292957     -1163.045940891        26.710879691
       146          292.000000         0.330384597       539.158035058     -1163.376684778     -1163.046300181        22.524640730
       147          294.000000         0.341050141       556.563246393     -1163.386838341     -1163.045788200        23.746151955
       148          296.000000         0.354790730       578.986655574     -1163.396764880     -1163.041974150        23.889959140
       149          298.000000         0.357981326       584.193422190     -1163.400045052     -1163.042063726        26.389162589
       150          300.000000         0.353306801       576.565017247     -1163.394225887     -1163.040919086        27.473262773
       151          302.000000         0.337315738       550.469036173     -1163.384982970     -1163.047667232        25.221070335
       152          304.000000         0.330871183       539.952100184     -1163.385731150     -1163.054859967        23.048599474
       153          306.000000         0.351283470       573.263121751     -1163.403851626     -1163.052568156        27.031157956
       154          308.000000         0.378594141       617.831688248     -1163.426101884     -1163.047507743        26.958241637
       155          310.000000         0.387705279       632.700247410     -1163.432157581     -1163.044452303        24.832843394
       156          312.000000         0.374702431       611.480766099     -1163.417450445     -1163.042748014        25.709533073
       157          314.000000         0.348601440       568.886288636     -1163.393678760     -1163.045077320        26.837465977
       158          316.000000         0.338180051       551.879517574     -1163.375304679     -1163.037124628        29.037486812
       159          318.000000         0.325965597       531.946623393     -1163.369444845     -1163.043479248        24.915895998
       160          320.000000         0.335803071       548.000498740     -1163.380376082     -1163.044573011        23.078186382
       161          322.000000         0.361397853       589.768888564     -1163.397666824     -1163.036268971        23.021822873
       162          324.000000         0.362239459       591.142314068     -1163.409323932     -1163.047084472        25.106812410
       163          326.000000         0.364968068       595.595158400     -1163.416160158     -1163.051192090        24.983104151
       164          328.000000         0.358401368       584.878892952     -1163.416701435     -1163.058300067        30.046957634
       165          330.000000         0.367505825       599.736550110     -1163.411271178     -1163.043765353        30.161387602
       166          332.000000         0.364458263       594.763202400     -1163.400388855     -1163.035930592        29.191344330
       167          334.000000         0.339882902       554.658416481     -1163.387678096     -1163.047795194        23.999755350
       168          336.000000         0.334403236       545.716093141     -1163.380975192     -1163.046571956        26.272320887
       169          338.000000         0.343636802       560.784445793     -1163.386587556     -1163.042950753        26.269622246
       170          340.000000         0.354051479       577.780263375     -1163.403820194     -1163.049768715        27.421031356
       171          342.000000         0.363055173       592.473486130     -1163.418063436     -1163.055008263        27.059164201
       172          344.000000         0.353326988       576.597959401     -1163.414558139     -1163.061231151        27.099305060
       173          346.000000         0.328938472       536.798089278     -1163.401928830     -1163.072990358        26.926028873
       174          348.000000         0.320695072       523.345598623     -1163.395820934     -1163.075125863        26.427110124
       175          350.000000         0.320114776       522.398608936     -1163.394010070     -1163.073895293        23.326080881
       176          352.000000         0.327524045       534.489871033     -1163.391675452     -1163.064151407        26.113566578
       177          354.000000         0.330280897       538.988805177     -1163.390125745     -1163.059844848        24.292182911
       178          356.000000         0.338343709       552.146592740     -1163.390387381     -1163.052043672        22.327961906
       179          358.000000         0.339721100       554.394370778     -1163.389455211     -1163.049734111        25.457735613
       180          360.000000         0.340509678       555.681259551     -1163.389566536     -1163.049056858        26.381357349
       181          362.000000         0.344788928       562.664610981     -1163.394767758     -1163.049978831        21.248448131
       182          364.000000         0.354585717       578.652093347     -1163.400530340     -1163.045944622        21.134725652
       183          366.000000         0.356578750       581.904543503     -1163.401926023     -1163.045347273        22.241135502
       184          368.000000         0.368764272       601.790223367     -1163.400542655     -1163.031778383        21.299028246
       185          370.000000         0.355467474       580.091041581     -1163.387886065     -1163.032418591        29.202288914
       186          372.000000         0.342367541       558.713124375     -1163.361569704     -1163.019202164        29.915764190
       187          374.000000         0.311569627       508.453691788     -1163.337134277     -1163.025564650        28.711498932
       188          376.000000         0.313664822       511.872861129     -1163.337026758     -1163.023361936        22.203788488
       189          378.000000         0.333903322       544.900278378     -1163.366245433     -1163.032342112        21.521312219
       190          380.000000         0.376270292       614.039375212     -1163.399981094     -1163.023710802        27.750880514
       191          382.000000         0.384673017       627.751868158     -1163.412982004     -1163.028308987        27.912276187
       192          384.000000         0.373214168       609.052054707     -1163.403222338     -1163.030008170        22.444175237
       193          386.000000         0.359342390       586.414555687     -1163.386223649     -1163.026881259        25.478821270
       194          388.000000         0.351429681       573.501725135     -1163.378005676     -1163.026575995        28.646234881
       195          390.000000         0.350404248       571.828309716     -1163.374064543     -1163.023660295        26.586512322
       196          392.000000         0.347309120       566.777339211     -1163.372548746     -1163.025239625        20.537601351
       197          394.000000         0.358037553       584.285180232     -1163.376872733     -1163.018835179        22.492382912
       198          396.000000         0.368113789       600.728692783     -1163.384166715     -1163.016052927        22.652864606
       199          398.000000         0.388407717       633.846563004     -1163.396260007     -1163.007852291        27.762909615
       200          400.000000         0.388145643       633.418882244     -1163.405387347     -1163.017241704        27.608437850
       201          402.000000         0.374105143       610.506046051     -1163.393298638     -1163.019193495        26.531262528
       202          404.000000         0.332183349       542.093436795     -1163.365126286     -1163.032942937        26.277581245
       203          406.000000         0.316926020       517.194843652     -1163.347920797     -1163.030994778        29.149641856
       204          408.000000         0.327767469       534.887116802     -1163.355097666     -1163.027330197        28.890449326
       205          410.000000         0.341623413       557.498774774     -1163.377811366     -1163.036187953        23.110360790
       206          412.000000         0.361950462       590.670696455     -1163.399888912     -1163.037938450        29.568403601
       207          414.000000         0.363727207       593.570185258     -1163.411074589     -1163.047347382        30.933298271
       208          416.000000         0.364845381       595.394944097     -1163.410556545     -1163.045711164        30.383444362
       209          418.000000         0.360212840       587.835052606     -1163.405129688     -1163.044916848        29.951018016
       210          420.000000         0.357736743       583.794284027     -1163.402716690     -1163.044979948        23.957551626
       211          422.000000         0.359631696       586.886677683     -1163.404423753     -1163.044792058        29.770292089
       212          424.000000         0.353909927       577.549263372     -1163.399261151     -1163.045351224        25.742793420
       213          426.000000         0.343954363       561.302675818     -1163.383745263     -1163.039790901        27.741462788
       214          428.000000         0.336212877       548.669265756     -1163.371358473     -1163.035145596        25.425137122
       215          430.000000         0.344662729       562.458665885     -1163.373616465     -1163.028953736        23.374758652
       216          432.000000         0.355493193       580.133012665     -1163.384328929     -1163.028835735        22.314418711
       217          434.000000         0.364615026       595.019025701     -1163.389565581     -1163.024950555        26.614982534
       218          436.000000         0.359829428       587.209358329     -1163.381838044     -1163.022008616        27.815141500
       219          438.000000         0.349430300       570.238913974     -1163.371529697     -1163.022099398        30.811695790
       220          440.000000         0.357256707       583.010908764     -1163.364607817     -1163.007351110        30.730046497
       221          442.000000         0.357796546       583.891877679     -1163.363911027     -1163.006114481        31.191222295
       222          444.000000         0.360636116       588.525800830     -1163.370441675     -1163.009805559        27.161028436
       223          446.000000         0.364730036       595.206711568     -1163.371931824     -1163.007201788        27.174780544
       224          448.000000         0.353374909       576.676162196     -1163.363165042     -1163.009790133        29.246104223
       225          450.000000         0.354515413       578.537362209     -1163.356015095     -1163.001499682        29.817034977
       226          452.000000         0.358301353       584.715677100     -1163.363701647     -1163.005400294        29.431480598
       227          454.000000         0.374478009       611.114529729     -1163.374388858     -1162.999910849        25.370059498