#     Step Nr.          Time[fs]        Kin.[a.u.]          Temp[K]            Pot.[a.u.]        Cons Qty[a.u.]        UsedTime[s]
         0            0.000000         0.103801873       273.150000000      -465.383016190      -465.279214317         0.000000000
         1            1.000000         0.093289108       245.486125966      -465.371952403      -465.278663296       220.850465881
         2            2.000000         0.078373599       206.236631177      -465.355810969      -465.277437369        20.884365183
         3            3.000000         0.075543058       198.788188311      -465.354420838      -465.278877780        18.949640428
         4            4.000000         0.079462200       209.101235182      -465.360508413      -465.281046213        19.102122536
         5            5.000000         0.075534123       198.764675572      -465.356672071      -465.281137948        19.001668082
         6            6.000000         0.063166150       166.218905678      -465.343385014      -465.280218865        18.998092044
         7            7.000000         0.058264943       153.321600061      -465.338202180      -465.279937236        18.978330520
         8            8.000000         0.067449146       177.489419498      -465.349178164      -465.281729018        18.863112778
         9            9.000000         0.076475599       201.242128637      -465.358917669      -465.282442070        17.079314378
        10           10.000000         0.070375523       185.190050031      -465.351236695      -465.280861172        19.453606264
        11           11.000000         0.056469510       148.596995775      -465.336280868      -465.279811358        18.874028821
        12           12.000000         0.053535127       140.875298369      -465.333646835      -465.280111708        19.057172863
        13           13.000000         0.058226034       153.219211719      -465.339902132      -465.281676098        19.361811851
        14           14.000000         0.057296827       150.774045391      -465.338848815      -465.281551988        19.035866096
        15           15.000000         0.047517063       125.039030706      -465.328502491      -465.280985428        18.777854423
        16           16.000000         0.043048095       113.279142113      -465.323830444      -465.280782349        19.157797436
        17           17.000000         0.052232543       137.447606273      -465.334091468      -465.281858926        19.250547835
        18           18.000000         0.064361836       169.365299973      -465.346806807      -465.282444971        19.061613106
        19           19.000000         0.065836424       173.245613964      -465.347588624      -465.281752200        18.916384914
        20           20.000000         0.060777039       159.932066337      -465.341032412      -465.280255374        18.866523388
        21           21.000000         0.060484675       159.162724688      -465.340304668      -465.279819993        18.906815705
        22           22.000000         0.065759893       173.044225532      -465.346391736      -465.280631843        19.251129950
        23           23.000000         0.065915546       173.453819704      -465.346850265      -465.280934719        19.260750691
        24           24.000000         0.058289261       153.385590982      -465.338742397      -465.280453136        19.067712976
        25           25.000000         0.054551070       143.548707078      -465.334225215      -465.279674145        18.889263646
        26           26.000000         0.060919662       160.307373131      -465.340625016      -465.279705354        18.933246275
        27           27.000000         0.069436033       182.717823559      -465.349579809      -465.280143776        19.193290816
        28           28.000000         0.072483449       190.736963556      -465.352610895      -465.280127446        19.051687289
        29           29.000000         0.070966734       186.745795808      -465.351546491      -465.280579757        19.175247901
        30           30.000000         0.071754521       188.818820757      -465.352349178      -465.280594658        19.144879350
        31           31.000000         0.073653783       193.816645878      -465.354644093      -465.280990310        19.152441560
        32           32.000000         0.072881061       191.783260900      -465.353576163      -465.280695102        19.420943220
        33           33.000000         0.066881351       175.995292970      -465.347520483      -465.280639132        19.398767309
        34           34.000000         0.063355758       166.717852018      -465.342935600      -465.279579842        19.521921690
        35           35.000000         0.063345082       166.689757248      -465.342928131      -465.279583049        19.192006691
        36           36.000000         0.064816046       170.560534856      -465.345126834      -465.280310788        18.703614489
        37           37.000000         0.067278553       177.040510309      -465.346979593      -465.279701041        19.234885324
        38           38.000000         0.070218568       184.777030323      -465.349087205      -465.278868636        19.177610066
        39           39.000000         0.073280009       192.833075828      -465.351986167      -465.278706158        19.080887742
        40           40.000000         0.074571330       196.231129126      -465.353446850      -465.278875520        19.061744877
        41           41.000000         0.073870082       194.385824804      -465.352634535      -465.278764453        18.929286710
        42           42.000000         0.072177598       189.932128797      -465.351111505      -465.278933908        19.132815825
        43           43.000000         0.072205355       190.005172475      -465.350765274      -465.278559919        19.137426120
        44           44.000000         0.071831738       189.022014318      -465.349955060      -465.278123322        19.154001296
        45           45.000000         0.069638785       183.251355653      -465.347815841      -465.278177056        19.113971168
        46           46.000000         0.070861403       186.468622439      -465.348019464      -465.277158061        18.870359618
        47           47.000000         0.075201651       197.889791830      -465.353001186      -465.277799534        19.168836172
        48           48.000000         0.081608609       214.749414702      -465.359161956      -465.277553347        19.146186609
        49           49.000000         0.082924595       218.212373881      -465.360906585      -465.277981990        18.934354632
        50           50.000000         0.081908575       215.538762618      -465.359330618      -465.277422043        19.139867333
        51           51.000000         0.082793884       217.868413845      -465.360483893      -465.277690009        18.889703109
        52           52.000000         0.086243811       226.946742199      -465.363927380      -465.277683569        19.031628709
        53           53.000000         0.084646693       222.743996845      -465.363587327      -465.278940634        18.650740645
        54           54.000000         0.079978390       210.459567494      -465.358411811      -465.278433420        19.146608839
        55           55.000000         0.078601857       206.837282152      -465.355951337      -465.277349480        19.006400607
        56           56.000000         0.083787921       220.484176778      -465.361773869      -465.277985948        19.307712742
        57           57.000000         0.091566261       240.952532222      -465.369632335      -465.278066074        19.197870484
        58           58.000000         0.092400299       243.147265719      -465.371258435      -465.278858136        18.787028355
        59           59.000000         0.090992957       239.443909225      -465.369509925      -465.278516968        19.043475168
        60           60.000000         0.094713379       249.234033169      -465.373451432      -465.278738053        19.055402838
        61           61.000000         0.102439323       269.564509566      -465.382044860      -465.279605537        19.052876016
        62           62.000000         0.105470604       277.541189225      -465.384382067      -465.278911464        18.959203234
        63           63.000000         0.100116113       263.451086960      -465.378384699      -465.278268586        19.079218806
        64           64.000000         0.096033935       252.709016769      -465.373946626      -465.277912691        19.092811787
        65           65.000000         0.100123155       263.469617939      -465.378337001      -465.278213845        18.859869168
        66           66.000000         0.106829077       281.115951002      -465.385909365      -465.279080288        19.346532152
        67           67.000000         0.108122864       284.520495071      -465.386928217      -465.278805353        18.998927178
        68           68.000000         0.106614295       280.550762269      -465.384307544      -465.277693249        19.054626544
        69           69.000000         0.109802950       288.941564922      -465.388230333      -465.278427384        19.383523788
        70           70.000000         0.118200601       311.039610563      -465.396698021      -465.278497419        18.970022830
        71           71.000000         0.121634225       320.075038631      -465.399784484      -465.278150259        19.263089731
        72           72.000000         0.117094720       308.129533402      -465.395588820      -465.278494100        19.331046181
        73           73.000000         0.114053199       300.125906634      -465.392283348      -465.278230149        18.932621670
        74           74.000000         0.117772299       309.912553135      -465.395813131      -465.278040832        18.968520516
        75           75.000000         0.123695007       325.497893320      -465.401726515      -465.278031508        19.150676514
        76           76.000000         0.123588993       325.218922635      -465.401629369      -465.278040376        19.216065899
        77           77.000000         0.120056221       315.922589833      -465.397923056      -465.277866836        19.858698603
        78           78.000000         0.122735167       322.972117530      -465.401032755      -465.278297588        19.151039027
        79           79.000000         0.130295033       342.865567651      -465.409545893      -465.279250860        19.173741354
        80           80.000000         0.133337370       350.871341279      -465.411983102      -465.278645733        19.254090912
        81           81.000000         0.129730501       341.380026604      -465.408761407      -465.279030906        19.272586924
        82           82.000000         0.128335496       337.709133491      -465.407517914      -465.279182418        19.003782572
        83           83.000000         0.132401711       348.409197164      -465.410458370      -465.278056659        19.058881404
        84           84.000000         0.134793413       354.702853624      -465.412611336      -465.277817924        19.274880696
        85           85.000000         0.132149710       347.746067738      -465.409711564      -465.277561854        19.446981181
        86           86.000000         0.129562059       340.936778767      -465.405928032      -465.276365973        19.074439866
        87           87.000000         0.129221276       340.040025153      -465.406749906      -465.277528629        19.551251240
        88           88.000000         0.132742251       349.305312315      -465.409855532      -465.277113282        19.001625047
        89           89.000000         0.132690251       349.168476489      -465.409797067      -465.277106817        18.980089314
        90           90.000000         0.131137733       345.083095550      -465.407686104      -465.276548371        19.104637831
        91           91.000000         0.133514756       351.338125768      -465.408343409      -465.274828653        19.032588518
        92           92.000000         0.135776570       357.289989295      -465.411184619      -465.275408048        19.053352547
        93           93.000000         0.134586822       354.159219584      -465.410496303      -465.275909481        19.123369948
        94           94.000000         0.130236863       342.712496789      -465.405841367      -465.275604503        19.025904652
        95           95.000000         0.128849425       339.061516044      -465.404086520      -465.275237094        19.222382626
        96           96.000000         0.132813259       349.492166825      -465.407168343      -465.274355084        19.083591783
        97           97.000000         0.134515693       353.972047514      -465.409871066      -465.275355373        19.128283590
        98           98.000000         0.134383445       353.624043137      -465.409538429      -465.275154983        18.917259738
        99           99.000000         0.133257361       350.660803221      -465.409229785      -465.275972423        19.165400261
       100          100.000000         0.136159180       358.296809387      -465.412349105      -465.276189925        19.266698166
       101          101.000000         0.139360664       366.721373013      -465.416623005      -465.277262341        19.072336892
       102          102.000000         0.139425120       366.890985688      -465.416859917      -465.277434796        18.942406448
       103          103.000000         0.136317081       358.712319749      -465.413265066      -465.276947985        18.953783834
       104          104.000000         0.135470723       356.485165535      -465.412316422      -465.276845699        19.071733836
       105          105.000000         0.137105753       360.787673088      -465.413932643      -465.276826891        18.863214254
       106          106.000000         0.134760344       354.615834226      -465.412649324      -465.277888980        19.399614025
       107          107.000000         0.132127726       347.688217741      -465.408422767      -465.276295041        18.858375536
       108          108.000000         0.132450277       348.536997832      -465.406753632      -465.274303354        19.125316549
       109          109.000000         0.135374983       356.233229684      -465.408943275      -465.273568292        19.448859097
       110          110.000000         0.136158316       358.294534529      -465.410207289      -465.274048974        18.987787804
       111          111.000000         0.133618779       351.611857578      -465.406407005      -465.272788226        19.453631451
       112          112.000000         0.128940235       339.300478532      -465.400531737      -465.271591502        18.914542193
       113          113.000000         0.127186956       334.686800897      -465.398658776      -465.271471821        19.177274492
       114          114.000000         0.126717919       333.452551435      -465.399472088      -465.272754169        19.062724838
       115          115.000000         0.124397605       327.346749782      -465.397998462      -465.273600856        19.404666378
       116          116.000000         0.120502764       317.097649863      -465.393381206      -465.272878441        19.158699516
       101          101.000000         0.139357702       366.713578437      -465.416623091      -465.277265388       249.813411313
       102          102.000000         0.139419167       366.875319972      -465.416860361      -465.277441194        32.273077437
       103          103.000000         0.136308402       358.689479437      -465.413266037      -465.276957636        27.996653624
       104          104.000000         0.135459239       356.454944570      -465.412317814      -465.276858575        29.397771245
       105          105.000000         0.137091422       360.749963444      -465.413934388      -465.276842966        28.556753443
       106          106.000000         0.134743527       354.571582152      -465.412651730      -465.277908203        27.702919946
       107          107.000000         0.132108797       347.638406974      -465.408426302      -465.276317505        28.622114687
       108          108.000000         0.132429130       348.481349370      -465.406758223      -465.274329093        27.289313603
       109          109.000000         0.135351306       356.170923948      -465.408948491      -465.273597185        27.315339263
       110          110.000000         0.136132161       358.225709536      -465.410213124      -465.274080963        28.360791256
       111          111.000000         0.133590779       351.538176305      -465.406414257      -465.272823478        28.048637052
       112          112.000000         0.128911185       339.224033856      -465.400541061      -465.271629876        30.027979848
       113          113.000000         0.127156658       334.607074333      -465.398669836      -465.271513178        28.653600684
       114          114.000000         0.126686029       333.368635309      -465.399484378      -465.272798349        27.596673805
       115          115.000000         0.124364358       327.259261236      -465.398012113      -465.273647755        27.405585837
       116          116.000000         0.120468717       317.008054641      -465.393396953      -465.272928237        27.650851256
       117          117.000000         0.118234560       311.128971773      -465.391910444      -465.273675884        27.207440984
       118          118.000000         0.121969973       320.958545285      -465.395814693      -465.273844720        26.875507629
       119          119.000000         0.124641668       327.988989133      -465.399725818      -465.275084150        27.960672958
       120          120.000000         0.124683108       328.098037700      -465.399286699      -465.274603591        28.166734388
       121          121.000000         0.122151945       321.437394615      -465.397000724      -465.274848779        28.062036378
       122          122.000000         0.122107666       321.320877099      -465.397321483      -465.275213817        27.289374081
       123          123.000000         0.122521399       322.409596432      -465.398726003      -465.276204604        27.976649474
       124          124.000000         0.121865080       320.682521899      -465.398068236      -465.276203156        27.234806854
       125          125.000000         0.118164977       310.945865566      -465.394386729      -465.276221752        26.930219312
       126          126.000000         0.117191429       308.384019046      -465.392118354      -465.274926925        27.261832172
       127          127.000000         0.120642044       317.464157454      -465.395829807      -465.275187763        27.961851483
       128          128.000000         0.126211536       332.120027958      -465.402354992      -465.276143456        28.282562746
       129          129.000000         0.129445018       340.628790283      -465.405280507      -465.275835489        27.012307763
       130          130.000000         0.130819233       344.244977214      -465.404949903      -465.274130670        28.730565097
       131          131.000000         0.132763172       349.360365293      -465.406244915      -465.273481744        27.272498019
       132          132.000000         0.136221166       358.459922034      -465.408814399      -465.272593233        27.796018769
       133          133.000000         0.139075055       365.969805581      -465.411419047      -465.272343991        28.074318323
       134          134.000000         0.140323463       369.254933687      -465.412992065      -465.272668603        27.301682965
       135          135.000000         0.140751415       370.381072223      -465.413362554      -465.272611138        27.722739117
       136          136.000000         0.141307499       371.844381390      -465.414118957      -465.272811458        28.093663873
       137          137.000000         0.143682958       378.095294651      -465.415903921      -465.272220963        28.448690293
       138          138.000000         0.147421889       387.934126632      -465.417764834      -465.270342944        28.270738103
       139          139.000000         0.151089231       397.584572358      -465.420762275      -465.269673044        27.850345310
       140          140.000000         0.153996296       405.234385799      -465.423603418      -465.269607121        27.883729278
       141          141.000000         0.154311886       406.064845875      -465.424143554      -465.269831668        27.771426339
       142          142.000000         0.154817876       407.396334562      -465.424154821      -465.269336945        27.851306704
       143          143.000000         0.157522940       414.514592053      -465.426219468      -465.268696528        27.431947812
       144          144.000000         0.158907217       418.157252853      -465.428696135      -465.269788918        27.257753780
       145          145.000000         0.159641959       420.090696067      -465.428846509      -465.269204550        27.770254127
       146          146.000000         0.158512169       417.117702268      -465.427660899      -465.269148730        27.186250239
       147          147.000000         0.157859789       415.400993683      -465.426689470      -465.268829681        27.672387951
       148          148.000000         0.157433430       414.279049459      -465.427788445      -465.270355015        27.754586333
       149          149.000000         0.158465822       416.995743326      -465.429426769      -465.270960947        27.289980087
       150          150.000000         0.155249881       408.533137852      -465.427503032      -465.272253151        28.066242355
       151          151.000000         0.151767118       399.368402385      -465.423270723      -465.271503605        29.654327084
       152          152.000000         0.149592007       393.644694969      -465.420724970      -465.271132963        30.182020066
       153          153.000000         0.150068038       394.897349321      -465.420899286      -465.270831248        29.393649744
       154          154.000000         0.148948363       391.950975327      -465.420253234      -465.271304870        29.713715463
       155          155.000000         0.144950831       381.431646568      -465.415906873      -465.270956042        29.433018261
       156          156.000000         0.141161359       371.459820364      -465.411108951      -465.269947592        29.469915028
       157          157.000000         0.139962193       368.304269279      -465.410262924      -465.270300730        28.564468407
       158          158.000000         0.141347623       371.949966597      -465.411023050      -465.269675426        28.740189024
       159          159.000000         0.138516118       364.498987820      -465.409189362      -465.270673243        29.176156056
       160          160.000000         0.136030099       357.957138329      -465.405777860      -465.269747761        28.875814151
       161          161.000000         0.135282465       355.989772141      -465.405097382      -465.269814918        29.986322487
       162          162.000000         0.138210321       363.694295414      -465.407516335      -465.269306014        29.272799423
       163          163.000000         0.138431541       364.276424726      -465.409262199      -465.270830658        29.414000207
       164          164.000000         0.135797265       357.344445621      -465.407697782      -465.271900517        29.052524366
       165          165.000000         0.133119902       350.299085256      -465.404746020      -465.271626118        28.937637436
       166          166.000000         0.132491853       348.646400780      -465.405205928      -465.272714076        29.367558953
       167          167.000000         0.133222506       350.569082912      -465.407951271      -465.274728765        29.651543396
       168          168.000000         0.132967522       349.898102588      -465.408223965      -465.275256443        29.816193913
       169          169.000000         0.132252904       348.017618537      -465.407045142      -465.274792238        29.960555024
       170          170.000000         0.133664846       351.733079714      -465.408016761      -465.274351916        28.942853949
       171          171.000000         0.134662824       354.359215566      -465.409431765      -465.274768941        29.471152414
       172          172.000000         0.133693374       351.808150957      -465.409178321      -465.275484947        29.922979011
       173          173.000000         0.132964952       349.891339773      -465.408196998      -465.275232047        29.052499509
       174          174.000000         0.132501972       348.673028323      -465.407168979      -465.274667007        29.851317425
       175          175.000000         0.130041981       342.199673626      -465.405967740      -465.275925759        28.987006933
       176          176.000000         0.128841501       339.040663245      -465.404274806      -465.275433305        29.016717679
       177          177.000000         0.126877634       333.872834108      -465.401970918      -465.275093284        29.013958864
       178          178.000000         0.125501169       330.250729608      -465.399982268      -465.274481099        29.799601388
       179          179.000000         0.123396994       324.713686446      -465.398491434      -465.275094440        29.870476971
       180          180.000000         0.121074347       318.601743478      -465.396735350      -465.275661004        29.054703933
       101          101.000000         0.140061865       368.566551028      -465.416608666      -465.276096432       323.301044179
       102          102.000000         0.140497994       369.714205858      -465.417061043      -465.276094440        32.275653948
       103          103.000000         0.137809980       362.640814652      -465.413977149      -465.275680370        30.549320438
       104          104.000000         0.137014105       360.546506644      -465.413180390      -465.275661431        30.379458840
       105          105.000000         0.138412827       364.227181642      -465.415040661      -465.276104796        29.527249743
       106          106.000000         0.137124057       360.835839482      -465.413749257      -465.276083880        29.402135910
       107          107.000000         0.133276863       350.712121194      -465.409518316      -465.275682104        29.904033287
       108          108.000000         0.131604963       346.312589488      -465.407833936      -465.275651887        29.212505815
       109          109.000000         0.133002827       349.991008300      -465.409481386      -465.275883681        29.262000283
       110          110.000000         0.134034308       352.705304707      -465.410793650      -465.276146434        29.318413926
       111          111.000000         0.131411230       345.802790930      -465.408061630      -465.276019493        29.211385808
       112          112.000000         0.127002436       334.201246523      -465.403294577      -465.275643642        29.497244267
       113          113.000000         0.125316790       329.765544905      -465.401679186      -465.275696662        28.992102683
       114          114.000000         0.125890405       331.274985133      -465.402592144      -465.276018794        29.252155151
       115          115.000000         0.124608858       327.902651695      -465.401412514      -465.276103494        28.768402047
       116          116.000000         0.120749050       317.745738592      -465.397231083      -465.275764959        28.670086572
       117          117.000000         0.118764515       312.523525133      -465.395054790      -465.275556650        30.005009286
       118          118.000000         0.121217094       318.977377284      -465.397827795      -465.275860458        29.263513303
       119          119.000000         0.124301539       327.093956955      -465.401222176      -465.276153348        29.121323524
       120          120.000000         0.124139958       326.668762279      -465.400883005      -465.275958464        29.785787146
       121          121.000000         0.122723939       322.942572331      -465.399204576      -465.275678819        29.111900548
       122          122.000000         0.123395313       324.709262562      -465.400004693      -465.275790333        29.679811137
       123          123.000000         0.125127562       329.267599148      -465.401991480      -465.276027426        29.119150325
       124          124.000000         0.124877429       328.609384157      -465.401836034      -465.276104513        30.115280343
       125          125.000000         0.121918653       320.823497875      -465.398677868      -465.275887699        29.510589649
       126          126.000000         0.119487728       314.426626465      -465.395942656      -465.275566325        29.257577898
       127          127.000000         0.121319155       319.245946310      -465.397943691      -465.275718850        28.968280803
       128          128.000000         0.125335687       329.815271180      -465.402370892      -465.276111979        29.587432001
       129          129.000000         0.127054916       334.339345037      -465.403955113      -465.275958971        28.929630469
       130          130.000000         0.127712692       336.070254111      -465.404396185      -465.275724039        29.351852178
       131          131.000000         0.130087566       342.319628979      -465.406898608      -465.275833083        29.338439356