      81
 i =       54, E =      -465.4048755976
  O         1.5645203153        1.1517067268        1.6129924379
  O         1.5644522538        1.1519791677        4.9129961220
  O         1.5644794936        1.1516000211        8.2133169194
  O         1.5647329041        3.8633172550        1.6128134714
  O         1.5643656595        3.8635010941        4.9134293723
  O         1.5642316272        3.8635863529        8.2131718043
  O         1.5647905397        6.5745394731        1.6136661469
  O         1.5640366503        6.5753189070        4.9131212886
  O         1.5644832708        6.5754896948        8.2124450829
  O         4.9169034608        1.1517467874        1.6133667393
  O         4.9169365848        1.1520453551        4.9132724468
  O         4.9170695248        1.1519921335        8.2125863921
  O         4.9168626694        3.8635905955        1.6132315115
  O         4.9171437851        3.8635145705        4.9131392017
  O         4.9171414600        3.8634296066        8.2127381695
  O         4.9171804452        6.5752284424        1.6128691616
  O         4.9173590053        6.5749256575        4.9131105312
  O         4.9167691530        6.5753559775        8.2132422100
  O         8.2697377903        1.1519269440        1.6130941337
  O         8.2697521758        1.1517105874        4.9129452886
  O         8.2695125653        1.1520821977        8.2129419737
  O         8.2694785501        3.8634174901        1.6135801039
  O         8.2696899373        3.8637249750        4.9124374738
  O         8.2696882700        3.8636429604        8.2130802454
  O         8.2694476270        6.5753093607        1.6130555616
  O         8.2697286669        6.5751975360        4.9128682227
  O         8.2697154621        6.5750962977        8.2130668655
  H         2.1797702729        1.1913873094        2.3662937441
  H         2.1796500719        1.1949440697        5.6659291828
  H         2.1684753783        1.1977940644        8.9750958204
  H         2.1845540194        3.9043711234        2.3623122091
  H         2.1729057836        3.9103332323        5.6714494408
  H         2.1669037798        3.9048518965        8.9763527078
  H         2.1747314181        6.6172856033        2.3710440937
  H         2.1651545876        6.6192846500        5.6773208926
  H         2.1854318298        6.6177326403        8.9607445691
  H         5.5265510125        1.1967636523        2.3707217237
  H         5.5219579728        1.1946229336        5.6744692467
  H         5.5345779565        1.1952196166        8.9636886153
  H         5.5286541980        3.9060928747        2.3690086817
  H         5.5257263814        3.9066745898        5.6714299493
  H         5.5315812672        3.9082437112        8.9662438443
  H         5.5320254620        6.6189815802        2.3661076424
  H         5.5288758885        6.6187867467        5.6689788921
  H         5.5227528939        6.6185499214        8.9736824645
  H         8.8794656144        1.1959783110        2.3704371596
  H         8.8825265308        1.1963521323        5.6677899159
  H         8.8798375655        1.1950404081        8.9698606783
  H         8.8682250012        3.9086391808        2.3796229376
  H         8.8879600639        3.9057901026        5.6630071688
  H         8.8850597485        3.9082522260        8.9657443677
  H         8.8778895559        6.6182020099        2.3714970168
  H         8.8865407445        6.6187812625        5.6645181599
  H         8.8795178342        6.6210095498        8.9701616512
  H         1.3098262288        2.0894234398        1.4655606485
  H         1.3160861072        2.0899590680        4.7567068614
  H         1.3101351160        2.0876423865        8.0563551588
  H         1.3140484431        4.8017539406        1.4615349848
  H         1.3128713196        4.7998957544        4.7538605437
  H         1.3105211173        4.8007183379        8.0613644200
  H         1.3094740935        7.5111254496        1.4615641396
  H         1.3136103751        7.5124952417        4.7555280793
  H         1.3138933588        7.5137311252        8.0602336875
  H         4.6665055964        2.0887947103        1.4553276260
  H         4.6648229234        2.0893472474        4.7591810996
  H         4.6636091284        2.0892597972        8.0605969225
  H         4.6673491544        4.8014653485        1.4579914136
  H         4.6644122630        4.8007597716        4.7592391480
  H         4.6638797823        4.8001838817        8.0581423085
  H         4.6654542586        7.5126821739        1.4585034432
  H         4.6639766508        7.5118439290        4.7589352060
  H         4.6643613746        7.5125406724        8.0588316849
  H         8.0185034394        2.0892691889        1.4571914931
  H         8.0156420975        2.0885600169        4.7592221595
  H         8.0185049601        2.0895263793        8.0581382404
  H         8.0172082678        4.7998767975        1.4555314839
  H         8.0161588725        4.8013730399        4.7621885654
  H         8.0178865863        4.8007468322        8.0576661530
  H         8.0180356729        7.5127418293        1.4583373356
  H         8.0164045000        7.5125619645        4.7603195145
  H         8.0184002412        7.5118976604        8.0550373748
